# vtk DataFile Version 3.0
File created by libpointmatcher
ASCII
DATASET POLYDATA
POINTS 17833 float
-2.980232e-08 -2.980232e-08             0
 -0.000854522   0.004581898  -0.000544548
  0.001805723   0.002412856  0.0002111793
 -0.002331823   0.005609453   0.001782715
  0.001380384   0.001955032  -0.000120461
  0.001484036  -0.003278285   -0.00212872
  0.007781953  -0.004436165 -0.0005099773
 -0.001230747  2.002716e-05   0.001157522
  0.001236677    0.00103578 -1.275539e-05
-0.0003406703  -0.003150254 -0.0001434088
   0.00457862  -0.001015812  0.0003916025
  0.004289359  -0.003732443   0.001377463
 -0.001267821  -0.002848119  -0.003212094
 -0.001252562  -0.008271962 -0.0008811355
  0.006732911  -0.006750673 -0.0004956722
  0.001320839  -0.004389852  0.0006745458
  0.005529195   -0.01004946 -3.349781e-05
   0.00708884  -0.009501994  0.0004569888
  0.008211851   -0.01117513 -1.478195e-05
  0.004661947   -0.01328784 -0.0003305674
  0.003568381  -0.007900119   0.001365542
  0.006835938    -0.0154525 -0.0005355477
  0.004109353   -0.01080534 -2.896786e-05
  0.006214678   -0.01142502  -0.001967311
    0.0101088   -0.01412028  0.0009487271
  0.007856011   -0.01643685  -0.001766741
   0.01004824   -0.01538661  -0.001495838
  0.007268846   -0.01157367  -0.001106501
  0.002223521   -0.01554549 -0.0009617805
  0.007238507  -0.009972364 -0.0006312728
  0.007391155   -0.01068285  -0.001770496
  0.005212635   -0.01249614 -0.0002804995
  0.001014203   -0.01116559  -0.001363635
  0.005508304   -0.01681715  -0.001331866
   0.00521481   -0.01039845   0.001729846
  0.009875178   -0.01581815  -0.003330529
  0.002149433   -0.02245891  -0.000759244
  0.002677023   -0.01722836  -0.002141476
  0.004701376   -0.01832882  -0.002399683
   0.00945136   -0.01811519  -0.001759946
  0.005429924   -0.02196115  0.0009949803
 0.0008749068   -0.01395172  -0.001345098
  0.003409445   -0.01594007 -0.0006660819
   0.00594902   -0.01799321  0.0007943511
  0.004152954   -0.01442447  -0.000164628
  0.003206044   -0.02007589  -0.002198756
  0.001474947   -0.01693144  -0.001165509
  0.001920432   -0.01636291  -0.001214802
  0.004342318   -0.02010623 -0.0001322031
  0.007584453   -0.02118349 -0.0004556179
  0.005433857    -0.0177609   0.000680089
  0.008633733   -0.01733321  -0.003316522
   0.00803715   -0.01927391  -0.001623988
  0.004994303   -0.02215251  -0.001559377
  0.004210651   -0.01570705  -0.002050281
  0.002998918   -0.01748025  -0.003313601
  0.003168344   -0.01595062 -0.0003815889
  0.005116642   -0.01887092  0.0002493262
   0.00586915   -0.01913327  0.0004928112
  0.007501692   -0.01736334  -0.001317561
  0.004962295   -0.01619244   -0.00365597
 -0.001925141   -0.01485157 -0.0007337332
  0.007342219   -0.02034974  -0.003549039
   0.00625065   -0.01497847 -0.0004839897
  0.002608865   -0.01499617   0.000418365
  0.005863845   -0.02088419 -0.0007984638
  0.005400985   -0.01913774  -0.001209021
  0.007215291   -0.01718274 -0.0003883839
  0.006803036   -0.02222717  -0.002622128
   0.00647521    -0.0171091  -0.002213895
   0.01021212    -0.0230628 -0.0001504421
   0.01047677   -0.02247235 -0.0002234578
  0.005565107   -0.02156016  -0.002721429
  0.007757306   -0.02573353 -0.0006838441
  0.009364903   -0.02468771 -0.0001857877
  0.005205005   -0.02164054  -0.002391875
  0.006493956   -0.01842368  -0.001240253
  0.009231448   -0.01951596  -0.003212273
    0.0127354   -0.02194726   -0.00130862
  0.007374227   -0.02225137  -0.001317918
  0.009334922    -0.0209505  -0.000864625
  0.003529847   -0.02302513  -0.001858652
  0.006408066   -0.01959091  3.546476e-05
  0.005860686   -0.01809958  -0.001610458
  0.006089032   -0.02268884  -0.003697038
  0.001425862   -0.01578134  -0.001550674
  0.007863343   -0.01806539 -6.365776e-05
  0.004392534   -0.01849744   -0.00130415
   0.00767222    -0.0195308  -0.001695991
  0.002571553   -0.01949149  -0.001312494
  0.006473809   -0.01939464  6.914139e-06
  0.006840199   -0.02108172 -0.0003190637
  0.002839565   -0.01975155 -0.0004336238
  0.008385688   -0.01964945  -0.001083791
  0.005597323   -0.01975173  -0.002319813
-0.0008461177   -0.02186203  -0.002043843
  0.005064398   -0.01917154 -0.0009471178
  0.006415129   -0.02106366 -0.0009637475
  0.004737437   -0.02031478  -0.002153993
  0.007904351   -0.02338085 -0.0005007386
   0.01169699   -0.02087548  -0.001471221
  0.007772088   -0.02160779  0.0001863837
   0.01062503   -0.02448922  -0.002783895
   0.01005822   -0.02295282  -0.002726436
  0.009715676   -0.02098468  -0.001731753
  0.006963909   -0.02160338  -0.002414227
  0.006423235   -0.01941746  -0.001132548
  0.006416857   -0.01963237  -0.001780093
  0.009210497   -0.02449882  -0.002441347
  0.006310046    -0.0196062   -0.00313884
  0.005325198   -0.02009517  -0.001541138
  0.004733235   -0.01839411  -0.001025558
  0.008314729   -0.02276063 -0.0006679296
  0.006669849   -0.02439639  -0.001604795
   0.01009843   -0.02215016  -0.001467347
   0.00927788   -0.02582666  -0.002390146
  0.009499907   -0.02022877  -0.002039909
  0.004182369   -0.02696142   0.001128554
  0.003750265   -0.02067852  -0.001763344
   0.00488171   -0.02241763  -0.003001392
  0.007962704    -0.0260683  -0.001474321
  0.007696271   -0.02358419  -0.003166556
  0.007782847   -0.02273235  -0.002040684
  0.005235881   -0.02741036  -0.003888309
  0.004981726    -0.0271382  -0.002944708
  0.006408423   -0.01855561  -0.002391875
  0.002747238    -0.0238809  -0.001536429
  0.001309186   -0.02348086  -0.001252949
  0.002360612   -0.02450848  -0.002178609
  0.009847432    -0.0221436  -0.001498461
  0.006613344   -0.02290004  -0.003371537
  0.008396149   -0.02362841  -0.003775179
  0.007049203    -0.0212298  -0.002567053
  0.009635568   -0.02411589  -0.002142072
    0.0080221   -0.01770279 -0.0005587935
  0.008981764   -0.02465472  -0.002466083
   0.01195493    -0.0221535  -0.003237724
  0.006228715   -0.02203122 -0.0006463528
  0.005323231    -0.0269739  -0.003982425
  0.004335761   -0.02610424  -0.003448725
  0.008471727   -0.01920751   -0.00144577
  0.006532997   -0.02288753  -0.001931906
  0.009817272   -0.02573451  -0.002380848
  0.004559129   -0.02302542  -0.003596246
  0.004152805   -0.02554557  -0.003072262
   0.01019412   -0.01862344  -0.003322959
  0.004978776   -0.02578261 -0.0009006262
  0.006916165   -0.02540243  -0.003128529
   0.01197961   -0.02630201   -0.00243187
  0.004994005   -0.02943683 -0.0006834865
 0.0004276633   -0.01646793  -0.006070316
   0.04616883   -0.07503894   -0.05892891
   0.05932376    -0.1154771    0.03615761
    0.2001818    -0.2931889  0.0006809235
    0.3579485    -0.5084045   -0.01562232
    0.5118028    -0.7241535  -0.008234024
    0.5991684    -0.8362114   -0.01519227
    0.7966954     -1.096148   -0.02224511
    0.8806883     -1.202844   -0.01218164
     1.022026        -1.412   -0.00407064
     1.097162     -1.554407    -0.0303604
     1.311795     -1.832816   -0.03487402
     1.544696     -2.164236    -0.0439958
     1.643224     -2.309097   -0.04194373
     1.804997     -2.553298   -0.02782357
     1.886624     -2.682734   -0.04034805
     2.054372     -2.917741    -0.0117951
     2.160039     -3.070317   -0.04205352
     2.324416     -3.296858   -0.03910244
     2.401737     -3.415668    -0.0417816
     2.598625     -3.700938    -0.0714007
     2.751218     -3.931873   -0.05040133
     2.856767     -4.065994   -0.06077117
     2.946919     -4.178602   -0.05071616
     3.093227     -4.410856   -0.04856896
     3.299336     -4.680924   -0.06420279
     3.387216     -4.781404   -0.06295758
     3.470445     -4.896351   -0.06215566
     3.657768     -5.151394   -0.06749558
     3.797214     -5.273316   -0.08850867
     3.926738     -5.465456   -0.06985253
     4.135147     -5.714935   -0.07304555
      4.22821     -5.807019   -0.07290715
     4.409272     -6.054848   -0.08925325
     4.605674     -6.276229   -0.07177466
     4.690207     -6.383581   -0.07725787
     4.900814     -6.648456   -0.09939718
     5.000686     -6.737709   -0.09133816
     5.185085     -6.965299   -0.09206372
     5.379651     -7.172482    -0.0861038
     5.580751      -7.40169    -0.1036708
     5.681322     -7.504506   -0.08493704
     5.794076     -7.622635   -0.09519285
     6.003578      -7.83816    -0.1003689
     6.106835     -7.938265    -0.1061729
     6.294895       -8.1452    -0.1157645
     6.519619     -8.346205    -0.1027585
     6.615082      -8.45495    -0.1009164
     6.840559     -8.658502    -0.1218951
     6.942833     -8.754015   -0.09271735
     7.049077     -8.865895    -0.1235368
     7.276197     -9.076003    -0.1266426
     7.400911      -9.16101    -0.1277882
      7.62251     -9.348669    -0.1301486
      7.85167     -9.533423     -0.125161
     7.971621     -9.598009    -0.1092409
     8.182192     -9.754496   -0.08938789
     8.284745     -9.836062   -0.09424639
     8.582963      -10.0514    -0.1629112
     8.852467     -10.21097    -0.1420921
     8.940799     -10.25461    -0.1303962
     9.217193     -10.41107    -0.1203179
     9.460248     -10.56251    -0.1132257
     9.576517     -10.65061    -0.1340344
     9.721731     -10.68704    -0.1132536
     10.00156     -10.85452    -0.1417256
     10.11962     -10.88908    -0.1186086
     10.41216     -11.02611    -0.1251293
     10.56665     -11.07732    -0.1123554
     10.80259     -11.16353    -0.1015203
     10.96265     -11.19502   -0.08751875
     11.21565     -11.28283   -0.08659911
     11.36307     -11.35835   -0.09990126
      11.6544     -11.42783    -0.0857724
      11.7806     -11.48428   -0.09322494
     12.07534     -11.58911   -0.08957487
     12.23372     -11.62674    -0.0897851
     12.37573      -11.6621   -0.08385915
     12.65853     -11.74039   -0.08343035
     12.80632     -11.77979   -0.08301747
     12.93749     -11.81561   -0.08187824
      13.2357     -11.87369    -0.0678255
     13.38614     -11.92654   -0.06997931
     13.54019     -11.95578   -0.06036824
     13.81488     -12.02608   -0.06225675
[...]
POINT_DATA 17833
VECTORS orientationX float
    0.5622767    -0.8267599    -0.0176901
    0.5618446    -0.8270544   -0.01765709
    0.5617388     -0.827123   -0.01780636
    0.5616454    -0.8271921    -0.0175468
    0.5618459    -0.8270513   -0.01776356
    0.5618079    -0.8270725   -0.01797684
    0.5617617    -0.8271092   -0.01772598
    0.5618004    -0.8270864   -0.01755473
    0.5618047    -0.8270821   -0.01762385
    0.5616663    -0.8271776   -0.01755168
    0.5616145    -0.8272134   -0.01752877
     0.561687    -0.8271632   -0.01758704
    0.5616052    -0.8272164   -0.01768818
    0.5614027    -0.8273641   -0.01719432
    0.5616686    -0.8271789   -0.01742776
    0.5615803    -0.8272358   -0.01756845
    0.5615654    -0.8272432    -0.0176822
    0.5616648    -0.8271785   -0.01755964
    0.5618566    -0.8270525   -0.01735996
    0.5619063     -0.827011   -0.01772388
    0.5618237    -0.8270696   -0.01761081
    0.5617279    -0.8271322   -0.01772087
    0.5617148    -0.8271448   -0.01755561
    0.5616066    -0.8272186   -0.01753791
    0.5615828    -0.8272298   -0.01776068
    0.5617338    -0.8271336     -0.017466
     0.561665    -0.8271713   -0.01789166
    0.5617664    -0.8271031   -0.01786986
    0.5616248    -0.8272082   -0.01744756
     0.561702    -0.8271512   -0.01766668
    0.5616934    -0.8271616   -0.01744703
    0.5617293    -0.8271367   -0.01746997
    0.5618885    -0.8270259   -0.01760133
    0.5618781     -0.827034    -0.0175513
    0.5618412    -0.8270544   -0.01775919
    0.5617285    -0.8271387   -0.01740556
    0.5619929     -0.826946   -0.01801992
    0.5620241    -0.8269299   -0.01777941
    0.5616847    -0.8271636   -0.01763118
    0.5619518    -0.8269784   -0.01780028
    0.5619053    -0.8270176     -0.017447
    0.5622061    -0.8268123   -0.01748428
    0.5621964    -0.8268169   -0.01757883
    0.5620037    -0.8269476    -0.0175938
    0.5620189     -0.826934   -0.01775497
    0.5618708    -0.8270385   -0.01756551
    0.5622701    -0.8267627   -0.01777707
    0.5620574    -0.8269071    -0.0177864
    0.5622021    -0.8268161   -0.01744875
    0.5620418    -0.8269216    -0.0175962
    0.5619417    -0.8269987   -0.01716883
    0.5619585     -0.826977   -0.01766346
    0.5620801    -0.8268952   -0.01761839
    0.5621151    -0.8268647   -0.01793381
       0.5619    -0.8270143   -0.01777729
    0.5621418    -0.8268498   -0.01777924
    0.5622392    -0.8267886   -0.01754339
    0.5620777    -0.8268985   -0.01754753
    0.5620357    -0.8269278   -0.01750401
    0.5618084    -0.8270819   -0.01750907
     0.562166    -0.8268347    -0.0177071
    0.5618273     -0.827068   -0.01757073
    0.5618232    -0.8270653   -0.01782126
    0.5620626    -0.8269041   -0.01775767
    0.5621371    -0.8268551   -0.01768025
    0.5621407    -0.8268575   -0.01745049
    0.5622771    -0.8267593   -0.01770994
    0.5620013    -0.8269481   -0.01765743
    0.5620649    -0.8268974   -0.01799548
    0.5620928    -0.8268824   -0.01781354
    0.5621194    -0.8268661   -0.01773251
    0.5618883     -0.827024   -0.01769516
    0.5618795    -0.8270385   -0.01728654
    0.5618858    -0.8270219   -0.01786732
    0.5621049    -0.8268694   -0.01802725
    0.5620425    -0.8269221   -0.01755355
    0.5620601    -0.8269072   -0.01769249
    0.5620728    -0.8269019   -0.01753974
    0.5621132    -0.8268733   -0.01760319
    0.5622691    -0.8267677   -0.01757716
    0.5619102    -0.8270023    -0.0180075
    0.5619925    -0.8269547   -0.01762551
    0.5620679    -0.8269048   -0.01755277
    0.5620891    -0.8268871   -0.01770885
     0.561995    -0.8269464   -0.01792173
    0.5622197    -0.8267983   -0.01771528
    0.5622938    -0.8267443   -0.01787924
    0.5619974    -0.8269534   -0.01752699
    0.5618958    -0.8270242   -0.01744499
    0.5618963    -0.8270224   -0.01750898
    0.5618506    -0.8270513   -0.01761722
    0.5620134    -0.8269351   -0.01787826
     0.562158    -0.8268385   -0.01779241
     0.562061    -0.8269069   -0.01767049
    0.5618692    -0.8270391   -0.01759804
    0.5619846     -0.826957   -0.01776638
    0.5620561    -0.8269087   -0.01775263
    0.5621461    -0.8268489   -0.01768424
    0.5620853    -0.8268921   -0.01759975
    0.5621497    -0.8268468   -0.01766788
    0.5621489    -0.8268406   -0.01799148
    0.5619434    -0.8269905   -0.01750602
    0.5621045    -0.8268763   -0.01773534
    0.5619875    -0.8269594   -0.01756203
    0.5620219    -0.8269297   -0.01785184
    0.5619972    -0.8269516   -0.01761041
     0.562045    -0.8269188   -0.01763401
    0.5622731    -0.8267568   -0.01795974
    0.5622323    -0.8267881    -0.0177938
     0.561922    -0.8269933   -0.01804915
    0.5621055    -0.8268804   -0.01749984
    0.5623637    -0.8266997   -0.01774198
    0.5620483    -0.8269172   -0.01760645
    0.5620666    -0.8269008    -0.0177924
    0.5620959    -0.8268824   -0.01771537
    0.5619223    -0.8269992   -0.01777555
    0.5620498    -0.8269153    -0.0176411
    0.5619919    -0.8269501   -0.01785608
    0.5619228    -0.8269989    -0.0177723
    0.5621024    -0.8268716   -0.01800783
      0.56193    -0.8269922   -0.01784706
     0.562083    -0.8268861   -0.01794706
    0.5621083    -0.8268735   -0.01773351
    0.5622072    -0.8268107   -0.01753051
    0.5621276    -0.8268566   -0.01790632
    0.5621046    -0.8268759   -0.01773652
    0.5624269    -0.8266523    -0.0179527
     0.562196    -0.8268127   -0.01779935
    0.5620769     -0.826895    -0.0177259
    0.5619569    -0.8269781   -0.01765293
    0.5619366    -0.8269883   -0.01782104
    0.5619822    -0.8269593   -0.01773891
    0.5619418    -0.8269872   -0.01770055
    0.5619172    -0.8270002   -0.01788793
    0.5620123    -0.8269432   -0.01752781
    0.5617203    -0.8271374     -0.017725
    0.5619307     -0.826992   -0.01783337
    0.5619861    -0.8269545   -0.01782858
    0.5620211    -0.8269246   -0.01811522
    0.5619825    -0.8269565   -0.01784554
    0.5619355    -0.8269908   -0.01773991
    0.5619603    -0.8269705   -0.01790546
    0.5621033    -0.8268785   -0.01767345
    0.5619789    -0.8269592     -0.017841
    0.5620049    -0.8269438   -0.01773651
    0.5621447    -0.8268477   -0.01778716
    0.5620767    -0.8268983   -0.01758607
    0.5623052     -0.826733   -0.01804388
    0.5623195     -0.826727   -0.01786513
    0.5623657    -0.8266934   -0.01796722
    0.5659103    -0.8242666   -0.01817107
    0.5749883    -0.8181413  -0.005804612
    0.5910469     -0.806601   0.007639302
    0.5929313    -0.8051304   -0.01405645
    0.5936606    -0.8045864   -0.01441659
    0.5945043    -0.8039928   -0.01266695
    0.5950291    -0.8036115   -0.01221859
    0.5908597    -0.8066783   -0.01244733
    0.5861674    -0.8101123     -0.011216
    0.5716096    -0.8204019   -0.01425876
    0.5686341    -0.8224658   -0.01433747
     0.569801    -0.8216993   -0.01172718
    0.5720423    -0.8201353   -0.01206228
    0.5709294    -0.8209398   -0.00987883
    0.5705607    -0.8212286  -0.006654382
    0.5702174    -0.8214559  -0.007900115
    0.5693173    -0.8220852  -0.007342406
    0.5689172    -0.8223099   -0.01182002
    0.5690168    -0.8221701   -0.01599997
    0.5693306    -0.8218936   -0.01880034
    0.5729526    -0.8194638    -0.0142971
    0.5770536    -0.8166024    -0.0130209
    0.5786017    -0.8155087   -0.01287516
     0.581297    -0.8136193   -0.01083118
    0.5919353    -0.8059146   -0.01069721
    0.6073358    -0.7943542   -0.01201994
    0.6149541    -0.7884803   -0.01142683
    0.6217216    -0.7831579    -0.0112009
     0.632948    -0.7741608  -0.007210074
    0.6357605    -0.7718142   -0.01054799
    0.6375585    -0.7703733  -0.006649064
    0.6393011    -0.7689176  -0.007747514
    0.6406476    -0.7677661   -0.01029997
    0.6422848    -0.7663691   -0.01220103
    0.6460351    -0.7632412   -0.01008148
    0.6487215    -0.7609232   -0.01250743
    0.6520463    -0.7580769   -0.01246045
    0.6547499    -0.7557599   -0.01138829
    0.6607363     -0.750546   -0.01040843
    0.6713493    -0.7410725   -0.01009042
    0.6831016    -0.7301945   -0.01371743
    0.6897488    -0.7239449    -0.0122694
    0.6956336    -0.7183084   -0.01127832
    0.7034751    -0.7105966   -0.01324451
    0.7062423    -0.7078683   -0.01200485
    0.7107387    -0.7033627   -0.01146238
    0.7196383    -0.6943003  -0.008250593
    0.7251109    -0.6885526   -0.01047086
    0.7366296     -0.676099   -0.01633854
    0.7429974    -0.6691955   -0.01150963
    0.7494491    -0.6619458   -0.01240959
    0.7633871    -0.6458417   -0.01133889
    0.7697101    -0.6383281  -0.009153671
     0.781978    -0.6232833  -0.005374186
    0.7939571    -0.6079683  -0.002594435
    0.8001062    -0.5998235  -0.006478387
    0.8119132    -0.5834804   -0.01864468
    0.8188719    -0.5734823   -0.02380878
    0.8357256    -0.5486767   -0.02273319
    0.8525785     -0.522411    -0.0140289
    0.8596578    -0.5107207   -0.01237062
    0.8740689    -0.4857034   0.009779297
    0.8895432     -0.456724    0.01076783
    0.8971241    -0.4417093   0.007822973
    0.9041672    -0.4271069   0.007843937
    0.9176562    -0.3972299    0.01076189
    0.9236677    -0.3827716    0.01799606
    0.9334761    -0.3579595    0.02208327
    0.9372309    -0.3478706    0.02417487
    0.9421304    -0.3345673    0.02133032
     0.944705    -0.3275517    0.01557181
    0.9487109    -0.3160886   0.005956471
    0.9506097    -0.3103794   0.002450415
    0.9544489    -0.2983708   0.001559997
     0.956016    -0.2933054   0.002347066
    0.9594091    -0.2818877   0.008579162
    0.9611644    -0.2758499   0.008384142
    0.9626195     -0.270765   0.007077164
    0.9655122     -0.260249   0.007541754
    0.9670122    -0.2545749   0.008906197
    0.9684893    -0.2488206    0.01081417
    0.9711466    -0.2380451    0.01445178
    0.9724629    -0.2326256     0.0141859
    0.9737736    -0.2270421    0.01472943
    0.9762801    -0.2159956    0.01493811
     0.977406    -0.2108895    0.01425956
    0.9786271    -0.2051919    0.01361245
    0.9796069    -0.2004807    0.01333473
    0.9805295    -0.1958372    0.01448036
    0.9824455     -0.185941    0.01505386
     0.983301    -0.1809001    0.01987106
    0.9842253    -0.1757207    0.02056861
        0.986    -0.1656221    0.01931971
    0.9870194    -0.1597427    0.01658797
    0.9878302    -0.1548012    0.01509179
    0.9894225    -0.1443229    0.01463742
    0.9901292    -0.1395552    0.01298153
     0.990787    -0.1349646    0.01120971
    0.9914707    -0.1297813    0.01194717
    0.9929966    -0.1170052    0.01636371
     0.993767    -0.1100767       0.01762
    0.9945623    -0.1029786    0.01553327
    0.9952771   -0.09597324    0.01458725
     0.996545     -0.082116    0.01244946
    0.9970747   -0.07512928    0.01406505
    0.9976531   -0.06695627    0.01432124
    0.9984565   -0.05245262    0.01826022
    0.9987737   -0.04520919    0.02018152
    0.9994203   -0.02595214    0.02203872
    0.9995993   -0.01526111    0.02383303
    0.9997419  -0.004208321    0.02232935
    0.9995133    0.02115332    0.02293479
    0.9991291    0.03474646    0.02310962
    0.9977328    0.06413493    0.02039028
    0.9966435    0.07929316    0.02035725
    0.9950474    0.09673777    0.02285678
    0.9913957     0.1287856     0.0234236
    0.9889876     0.1463513    0.02202138
    0.9861129     0.1643874    0.02362657
    0.9826199     0.1839593    0.02483954
    0.9741839     0.2241932      0.026519
    0.9693887     0.2443793    0.02375609
    0.9640692      0.264371    0.02605287
    0.9522269      0.303806    0.03107828
    0.9458148     0.3231865    0.03138143
     0.930793     0.3645205    0.02737135
    0.9221138     0.3857458    0.03010014
    0.9123831      0.408329    0.02871754
    0.9022301     0.4302589    0.02929731
    0.8793183      0.475186    0.03159231
    0.8672546     0.4965802    0.03574805
    0.8415004     0.5388308    0.03922625
    0.8253753     0.5630015    0.04225201
    0.7913125     0.6096944    0.04579449
     0.773298       0.63252    0.04391596
    0.7403615      0.671071    0.03909578
    0.7231217     0.6897117    0.03732532
     0.688175     0.7247499    0.03395442
    0.6696011     0.7419991    0.03274036
    0.6320387     0.7743474    0.03021308
    0.6125964      0.789735    0.03231879
    0.5920166     0.8053485    0.03050075
    0.5462727     0.8370103    0.03162638
    0.5191327     0.8540007    0.03440963
    0.4669767     0.8833569    0.04016774
    0.4394928     0.8974654    0.03744539
    0.3908106     0.9196159    0.03967706
    0.3661069     0.9291032    0.05227774
    0.3467741     0.9363862    0.05411739
    0.3122414     0.9487271    0.04921634
    0.2980833     0.9533646    0.04735601
    0.2662378      0.962747    0.04728119
     0.250169     0.9669978    0.04827842
    0.2339883     0.9709792    0.04948647
    0.2055519     0.9775858    0.04554903
    0.1915719     0.9805474    0.04274173
    0.1653403     0.9855081    0.03789832
    0.1515472     0.9878085    0.03560907
    0.1380517      0.989746    0.03666904
    0.1241966     0.9915484    0.03750994
   0.09714845     0.9946306    0.03567319
   0.08371762     0.9958366    0.03606895
   0.07112075     0.9968899     0.0339454
   0.04476586     0.9984459    0.03319834
    0.0326364     0.9989766    0.03131615
   0.01900297     0.9991563    0.03640714
 -0.005426988     0.9994164    0.03372708
  -0.01720314     0.9992903    0.03351451
  -0.02943896     0.9990945    0.03071865
  -0.05273149      0.998262    0.02631337
   -0.0642013     0.9976451     0.0241341
  -0.07547755     0.9968007    0.02629364
   -0.0969807     0.9949841    0.02452226
   -0.1080303     0.9937833    0.02691639
   -0.1183531     0.9926358    0.02582272
   -0.1380584     0.9900758    0.02626506
    -0.147932     0.9887444    0.02237629
   -0.1580743     0.9871703     0.0225269
   -0.1772183     0.9838774    0.02407292
   -0.1865325     0.9821271    0.02514699
   -0.1961375     0.9802335    0.02593436
   -0.2148891     0.9762872    0.02620306
   -0.2235664     0.9744132    0.02319081
    -0.233099     0.9722496    0.01989494
   -0.2507311      0.967874    0.01882095
   -0.2596425     0.9655333    0.01820967
   -0.2758961     0.9610568    0.01585637
   -0.2845799     0.9585034     0.0168997
   -0.2920105     0.9562319    0.01871468
   -0.3009534     0.9534155    0.02064382
   -0.3176235     0.9479276     0.0234215
   -0.3255478     0.9452142    0.02426074
   -0.3335384     0.9424707    0.02238772
   -0.3490016     0.9369074    0.02006822
   -0.3566413     0.9340799    0.01737556
   -0.3644496     0.9310483    0.01804908
   -0.3719271     0.9281655    0.01337728
   -0.3867133     0.9221257    0.01171728
   -0.3938506     0.9191197    0.01004343
   -0.4085124     0.9126325    0.01482779
   -0.4153612     0.9095372    0.01474298
    -0.422206     0.9063791    0.01480739
    -0.436016     0.8997992    0.01587276
    -0.443329     0.8961918    0.01730546
   -0.4497551     0.8929688    0.01809279
   -0.4626537     0.8863897    0.01628028
   -0.4688138     0.8831778    0.01451454
   -0.4749424     0.8799178    0.01321284
    -0.481672     0.8762728    0.01176349
   -0.4940422     0.8693578    0.01181221
   -0.5004962     0.8656523     0.0122387
   -0.5062957     0.8622692    0.01252174
   -0.5185271      0.854962    0.01301702
   -0.5240003     0.8516353    0.01188783
   -0.5302431      0.847771    0.01125566
   -0.5427728     0.8398079    0.01098197
   -0.5497615     0.8352411    0.01160243
    -0.556919     0.8304455    0.01419279
   -0.5731136     0.8193076    0.01661193
   -0.5816955       0.81323    0.01695562
   -0.5908055      0.806614    0.01796159
   -0.6014461     0.7987475    0.01629166
    -0.624447      0.780966    0.01258017
    -0.636543     0.7711512    0.01178822
   -0.6483207     0.7612935    0.01060942
   -0.6713567     0.7411171   0.005062994
   -0.6834072     0.7300109   0.006229702
   -0.6948649     0.7191198   0.005437456
   -0.7196562     0.6942856    0.00792182
   -0.7328624     0.6803441   0.006675389
   -0.7464972     0.6653536   0.006839212
   -0.7741407     0.6329775    0.00674945
   -0.7892755     0.6140027   0.006703518
   -0.8209398      0.571007    0.00298815
   -0.8360829     0.5486022    0.00110766
   -0.8508037     0.5254829 -0.0009499648
    -0.865054     0.5016655  -0.003638618
   -0.8923093     0.4513557  -0.007892503
   -0.9054888     0.4242747   -0.00899808
   -0.9295511     0.3685801  -0.009140372
   -0.9406031      0.339335   -0.01084162
   -0.9504545     0.3106107   -0.01254546
   -0.9670453     0.2542512   -0.01340867
    -0.973813     0.2270008   -0.01260822
   -0.9836346     0.1795587   -0.01490714
   -0.9874594     0.1568923     -0.017574
   -0.9909575      0.132874   -0.01865504
   -0.9956369     0.0904908   -0.02277274
   -0.9972346    0.07086539   -0.02238126
    -0.999015    0.03862145   -0.02184728
   -0.9995342    0.02232164   -0.02082012
    -0.999746   0.005418353   -0.02188357
   -0.9993331   -0.02803265   -0.02339416
   -0.9986179   -0.04530172   -0.02664305
    -0.997713   -0.06218217    -0.0264966
   -0.9948865   -0.09655152   -0.02964609
   -0.9932818    -0.1116425   -0.03044696
   -0.9901274    -0.1360735   -0.03364421
   -0.9887555    -0.1462847   -0.03104122
    -0.987279    -0.1562922   -0.02920652
   -0.9833755    -0.1793038   -0.02868097
   -0.9812671    -0.1898738   -0.03260162
   -0.9790593    -0.2009183    -0.0327825
   -0.9743337     -0.222043   -0.03702275
   -0.9717238    -0.2333586   -0.03601377
   -0.9690787    -0.2438406   -0.03779775
   -0.9636824    -0.2642408   -0.03864073
   -0.9608588    -0.2745091    -0.0373533
   -0.9579976    -0.2846098   -0.03518706
   -0.9517406    -0.3052365   -0.03194593
   -0.9486666    -0.3144987    -0.0335015
   -0.9453681    -0.3243342   -0.03296618
   -0.9387101    -0.3428133   -0.03608673
   -0.9352019    -0.3520717   -0.03798467
    -0.931666    -0.3613447   -0.03779578
   -0.9280759    -0.3701226   -0.04104158
   -0.9206015    -0.3881249   -0.04303545
   -0.9165598    -0.3973684   -0.04490811
   -0.9125707    -0.4064761   -0.04463343
   -0.9080686    -0.4161505   -0.04722323
   -0.8988465    -0.4359756   -0.04472566
   -0.8945145    -0.4453493   -0.03883403
   -0.8863026    -0.4618211   -0.03448579
   -0.8838968    -0.4666821   -0.03055802
   -0.8844076    -0.4656809   -0.03105175
    -0.891374    -0.4519231   -0.03489726
   -0.8980356    -0.4383643   -0.03699725
    -0.901023     -0.432087   -0.03818877
   -0.9094947    -0.4139042   -0.03877079
   -0.9139644    -0.4033022   -0.04490633
   -0.9241658    -0.3787871   -0.04937771
   -0.9292919    -0.3659965   -0.04963187
    -0.939782    -0.3389463   -0.04387749
   -0.9449365    -0.3249418   -0.03883191
   -0.9557948    -0.2921672   -0.03308491
   -0.9611776    -0.2748234   -0.02469466
   -0.9716851    -0.2355996   -0.01791536
   -0.9807643    -0.1941791   -0.01990098
   -0.9845985    -0.1739097    -0.0179322
   -0.9911033    -0.1319458   -0.01746178
   -0.9938394    -0.1089111   -0.02053512
   -0.9979861   -0.06072431   -0.01833727
   -0.9990862   -0.03533319   -0.02404149
   -0.9995824  -0.008118188   -0.02773811
   -0.9984279    0.04977107   -0.02578116
   -0.9964898    0.07901112   -0.02766239
   -0.9898489     0.1403857   -0.02216178
    -0.985512     0.1687219   -0.01730557
   -0.9778004     0.2092975   -0.01006052
   -0.9750593     0.2215499   -0.01322201
   -0.9729743     0.2303412   -0.01624536
   -0.9697093     0.2434988   -0.01929023
    -0.968107     0.2500122   -0.01621575
   -0.9664146     0.2565646   -0.01475118
   -0.9629483     0.2695286  -0.009224091
   -0.9593027      0.282272  -0.007804347
   -0.9576194     0.2879463  -0.007230087
   -0.9561954     0.2925914  -0.008993003
   -0.9531048     0.3024641   -0.01033449
   -0.9515043     0.3074919  -0.009390316
   -0.9499187     0.3123294   -0.01023876
   -0.9465011     0.3224799   -0.01193992
   -0.9448845     0.3271631   -0.01254893
   -0.9416118     0.3364482   -0.01303249
   -0.9400054     0.3408952   -0.01342374