# vtk DataFile Version 3.0
File created by libpointmatcher
ASCII
DATASET POLYDATA
POINTS 16658 float
            0 -5.960464e-08             0
  0.002329141 -0.0003221631 -0.0004841089
  0.002226099 -0.0005671978  -0.001284361
  0.001717284  8.445978e-05  -0.000634551
  0.002000228  0.0002183318 -0.0006787777
  0.002154663  0.0006332994  -0.001648009
 0.0005997419  0.0002052188  -0.001647055
  0.001835361  0.0003585815  -0.001466215
 0.0004264861 -0.0007491112  0.0001228452
 0.0001696646  -0.001111269  -0.002132177
   0.00221622  -0.000153482  -0.001004517
  0.001431584 -0.0004538298 -0.0007091165
  0.001672581   0.000434041  -0.001762986
  0.002443388  4.005432e-05  0.0006065369
  0.001703158 -0.0001237988  -0.001428902
  0.001254931 -0.0006644726  -0.002328217
-0.0001832843  0.0001205206  -0.001373172
 -0.001006544  -0.001382589  -0.002942801
 0.0008934736 -0.0004165173  -0.002681315
 0.0001433343  -0.001311958 -0.0009621978
-1.211464e-05 -0.0007861257   0.000446558
-0.0003151447  0.0008770227  0.0003067851
  -0.00103873 -0.0009163618 -0.0006146431
 0.0003383756  0.0003860593 -0.0006224513
-0.0005732328  -0.001010358  -0.000802815
-0.0008535683 -0.0004652739  -0.001132071
-0.0006271303 -0.0005093813 -7.480383e-05
-0.0005989969 -0.0006459951  -0.003497601
 3.544986e-05 -0.0003826022  -0.001724243
 -0.002767473  -0.001264036 -0.0003492832
 -0.002748191 -0.0008738041  -0.001464128
 -0.001918226  -0.001573086  -0.002271235
 -0.001688316  -0.001383781  -0.001859546
  -0.00300014  -0.001872599 -0.0005339384
 -0.002988786  -0.001764357  -0.001364589
 -0.003771544  -0.001593709 -0.0007279515
 -0.002525598  -0.000952363  -0.002867877
 -0.002812162  -0.001288593  -0.001824677
 -0.003219515  -0.002435923  -0.001571655
 -0.004426003  -0.001284897  -0.001136243
 -0.004665688  -0.001427889  -0.003605425
 -0.004257262  -0.002141953  -0.001084328
 -0.004515126  -0.002898932  -0.001493335
  -0.00410606  -0.001615942 -0.0005329847
 -0.003724098  -0.001731455  -0.002875268
 -0.005825058   -0.00141567  -0.001117706
 -0.005645484  -0.002928376  -0.002824843
 -0.004515663  -0.002070785  -0.002339721
 -0.006366327  -0.002317309  -0.000818491
 -0.006531909  -0.002383828 -0.0008716583
  -0.00577338   -0.00260514  -0.001571298
 -0.005823821  -0.002858698  -0.002333879
 -0.004204541  -0.002439499  -0.003372073
 -0.005523935  -0.002533972  0.0005396605
  -0.00492084  -0.001870871  -0.001382649
 -0.005358726  -0.002184153  -0.001755953
 -0.006198972   -0.00114876 -0.0008075833
 -0.005659133  -0.002037942  -0.002749681
 -0.005110368  -0.002491891  -0.001009703
 -0.005777001  -0.002221167  -0.001776934
 -0.007442266   -0.00145328  9.804964e-05
 -0.006457746   -0.00209552  -0.001492858
 -0.006999403  -0.002829194  -0.001999676
 -0.006039783  -0.001389384  -0.002354383
 -0.006040663  -0.002542317  -0.002090573
 -0.007224008  -0.002662957   -0.00243324
 -0.005457506  -0.002828538 -0.0009924769
 -0.006139278  -0.002441287  -0.002547324
 -0.006959125  -0.003063798  -0.001239419
 -0.006511465  -0.002019644 -0.0008571148
 -0.006576896  -0.002620876  -0.001052558
 -0.007330522  -0.002726018 -0.0003223419
  -0.00850451  -0.002348065 -0.0004027486
 -0.005651832  -0.003994107  -0.002483249
 -0.007496551  -0.002924621  -0.002233803
 -0.007391334  -0.003651083  -0.001973808
 -0.008465812  -0.001849771  0.0008116961
 -0.008149929  -0.003710032   -0.00158304
 -0.007623807   -0.00203979  -0.003011405
 -0.009583279  -0.002627969   -0.00194025
 -0.007930323  -0.001915514  -0.002223313
  -0.00914067  -0.002953291  -0.002299368
 -0.008428372  -0.003452122  -0.002091289
 -0.007874765  -0.002065063 -0.0009993315
 -0.007419884   -0.00248313 -0.0008746386
 -0.007834479  -0.002101839  -0.001527488
 -0.007655159  -0.002509654   -0.00133276
 -0.009414673  -0.002267838 -0.0008877516
 -0.005979151  -0.003602743  -0.001793504
 -0.007512107 -0.0006057024 -0.0008696318
 -0.007735431   -0.00298053  -0.001702249
 -0.007828206  -0.001979113 -0.0007837415
 -0.009284399  -0.002982318  -0.001533985
 -0.005428851  -0.001443624  -0.001867235
 -0.008248657  -0.002349496 -0.0005530119
 -0.007813305  -0.003285408  -0.002213717
 -0.007630929  -0.002256632  -0.002013624
 -0.007328898  -0.002973437  -0.001514792
 -0.005860671  -0.001605928  -0.002976716
 -0.006471097   -0.00265795   0.000352025
 -0.008171156  -0.001898468  -0.000508666
 -0.006593168  -0.001745641 -0.0001507998
 -0.005082458  -0.002056956  -0.002913058
 -0.007654086  -0.003566623  -0.002875268
 -0.006800026  -0.002138734 -0.0001067519
 -0.008312657  -0.002161324  -0.001899123
 -0.006888583  -0.003353059   -0.00189209
 -0.007285506  -0.002955079  -0.001865923
 -0.006624818  -0.002707958  -0.002361476
 -0.006915897  -0.002001822  -0.001148582
 -0.006105289    -0.0034495  -0.003148615
  -0.00751926  -0.002376497  -0.002830207
 -0.006859586  -0.002064347  -0.002091408
 -0.005504295  -0.002521038 -0.0009478331
 -0.005781561  -0.002835393  -0.001961172
 -0.006004646  -0.001804054  -0.000878036
 -0.007372573   -0.00236237 -0.0002074838
 -0.006627396  -0.002118826  -0.001255274
 -0.007575795  -0.002027333  -0.002451122
 -0.006617531  -0.003084421  -0.001289666
 -0.006417319  -0.001476943 -0.0004537106
 -0.005958155  -0.002147555  -0.003445804
 -0.006656542  -0.001766145  -0.001743138
 -0.006588846  -0.001967072  -0.002019107
 -0.006250873  -0.002047837 -8.428097e-05
  -0.00532122  -0.003171265  -0.003816009
 -0.006068349  -0.002941728 -0.0007710457
 -0.006203473  -0.001490295  -0.002177298
 -0.005911797  -0.001635849  -0.001958907
 -0.006178528  -0.002426326 -0.0009031296
 -0.006140277  -0.002174079    -0.0029158
 -0.004744336    -0.0020293  -0.001005828
 -0.006056428  -0.002287626  -0.003781438
 -0.007132709   -0.00336498  -0.001689255
 -0.006142214  -0.002019525  -0.001248419
 -0.006234258  -0.002777994   -0.00239706
 -0.005520359  -0.002624989  -0.002714932
 -0.005171597  -0.003476262  -0.002217174
 -0.005537018  -0.001902223  -0.001419127
 -0.005563363  -0.002999544  -0.001566887
 -0.006623283  -0.001997828  -0.002613664
 -0.006723061  -0.002703488  -0.001348197
 -0.006849349  -0.002671659 -0.0005114675
 -0.006891415  -0.002887189  -0.003435016
 -0.005636081  -0.002396047  -0.002305746
 -0.005503595  -0.002928913 -0.0004150867
 -0.006244838  -0.002687275  -0.001092196
 -0.004818872  -0.002309501 -0.0002881289
 -0.005021453  -0.002400935  -0.002209783
 -0.005132586  -0.002056837  -0.002092659
 -0.005327806  -0.002310455 -0.0005639791
 -0.004435197  -0.001035273  -0.002157331
 -0.005099922   -0.00271064  -0.002289593
 -0.005930126  -0.002209008  -0.001980007
 -0.004628465  -0.002313256  -0.001889348
 -0.005372763  -0.002290905 -0.0006535649
 -0.004898071  -0.002889633  -0.002485693
 -0.005029276  -0.002443492  -0.002079904
 -0.005175456  -0.001768589  -0.001992822
 -0.005507275  -0.002296925  -0.002375424
  -0.01921691   0.003749907   -0.01792747
  -0.02192914  -0.004145741   -0.05634296
 -0.002869591   -0.02121347  -0.001702607
   0.00924395   -0.07274988    0.03354847
   0.03819582    -0.1601585  -0.003603876
   0.06032492    -0.2572843    0.01883906
    0.0931197    -0.3809267    0.03571647
    0.1588463    -0.5225738   0.004134774
    0.2171864    -0.6373112  -0.003885925
    0.2597986    -0.7418156    0.00535053
     0.299474    -0.8399773   0.007667482
    0.3545071    -0.9393172    0.00169158
    0.4094765     -1.031947   0.006294847
     0.450031     -1.114755    0.01013249
    0.4998406     -1.204991   0.007983685
    0.5547669     -1.286489  -0.009227514
    0.6096449     -1.357687   -0.02396816
    0.6596123     -1.430402  -0.007130623
    0.7199162     -1.494026  -0.003576577
    0.7814667     -1.560715  -0.005407453
    0.8526452      -1.62612  -0.008220136
    0.9264358     -1.697169   -0.02168405
     1.006827     -1.769658   -0.01556325
     1.092204     -1.837853  -0.003946126
     1.182396     -1.907691  -0.008728802
     1.282374     -1.980641  -0.001552045
     1.381967     -2.047972   0.006540835
     1.484557     -2.119873  0.0008090734
     1.592471     -2.181799   0.006102622
     1.701047     -2.241369   0.001296699
     1.813149     -2.293526   0.002435923
     1.925122      -2.34061    0.01081473
     2.038615     -2.381504    0.01353794
     2.152177     -2.422065    0.01735795
     2.269764     -2.458364    0.01673841
     2.396455      -2.48355   0.009718895
     2.527502     -2.509267   0.005692959
     2.668039     -2.525105    0.01829231
     2.777297     -2.548858    0.03102434
     2.889606     -2.576654    0.03657293
      3.04433     -2.591157    0.03250885
      3.21075     -2.596196    0.02993864
      3.34725     -2.610761    0.03416586
     3.494125     -2.624959    0.04412383
     3.647603     -2.625797    0.04077643
     3.787685     -2.631377    0.04757136
     3.926376     -2.632368    0.05537671
     4.080911     -2.629838     0.0540747
      4.24553     -2.617498    0.05683929
     4.403847     -2.597624    0.06992114
     4.524758     -2.587354    0.07379502
     4.664833     -2.573256    0.08318007
     4.818865     -2.548391    0.07765597
     4.946461     -2.529875    0.07881963
     5.091961      -2.50556     0.1001204
     5.243907     -2.477541    0.09242886
      5.39026     -2.448391     0.1025928
     5.531719     -2.421313     0.1089155
     5.679471     -2.389806     0.1101995
     5.814234     -2.357188     0.1209739
     5.966133     -2.321084      0.123414
      6.10888     -2.282535     0.1258798
     6.207303     -2.255588      0.156825
     6.345245     -2.221223      0.149355
     6.466025     -2.184497     0.1325704
     6.597303     -2.156115     0.1183502
     6.705781     -2.123091      0.128379
     6.779985      -2.09186     0.1417236
      6.87167     -2.047573     0.1569542
     6.968375     -1.989191     0.1381031
     7.018419     -1.940897     0.1437871
     7.075771     -1.874456     0.1596578
     7.146935     -1.797596     0.1637093
     7.215848      -1.71378     0.1692972
     7.318705     -1.617827     0.1614153
[...]
POINT_DATA 16658
VECTORS orientationX float
    0.2724315    -0.9621629   -0.00485498
    0.2721408    -0.9622462  -0.004641483
     0.272169    -0.9622359  -0.005101942
    0.2723747    -0.9621813  -0.004411528
    0.2721769    -0.9622364  -0.004558621
    0.2722953    -0.9622027  -0.004612923
    0.2722616    -0.9622101  -0.005032537
    0.2720377    -0.9622747  -0.004811879
    0.2723243     -0.962194  -0.004726554
    0.2721381     -0.962247  -0.004625777
    0.2721292    -0.9622483   -0.00488898
    0.2720852    -0.9622613  -0.004757409
    0.2721759     -0.962237  -0.004499306
    0.2720375    -0.9622724  -0.005208406
    0.2722674    -0.9622099  -0.004704544
    0.2722744    -0.9622084  -0.004621235
     0.272288    -0.9622034  -0.004869736
    0.2723207    -0.9621937  -0.004963552
    0.2722196    -0.9622232  -0.004848541
    0.2724509    -0.9621584  -0.004668509
    0.2724285    -0.9621638  -0.004860834
    0.2723479    -0.9621865  -0.004857303
     0.272268    -0.9622108  -0.004527596
    0.2722059     -0.962227  -0.004815269
    0.2724313    -0.9621626  -0.004950394
    0.2721325    -0.9622468  -0.004979927
    0.2723066    -0.9622012  -0.004255665
    0.2722153    -0.9622241  -0.004884586
    0.2721299    -0.9622492  -0.004681772
    0.2722179    -0.9622228  -0.004972649
    0.2722973       -0.9622  -0.005050207
    0.2721884    -0.9622334  -0.004520035
     0.272234    -0.9622175  -0.005098457
      0.27229    -0.9622045  -0.004556194
    0.2722311    -0.9622202  -0.004763367
    0.2722711    -0.9622092  -0.004681244
    0.2723591    -0.9621832   -0.00491385
      0.27233    -0.9621927  -0.004665747
    0.2721116    -0.9622518  -0.005187894
    0.2723628    -0.9621829  -0.004761186
    0.2722328    -0.9622197  -0.004745998
     0.272209    -0.9622266   -0.00470177
    0.2721945      -0.96223  -0.004851991
    0.2722334    -0.9622192  -0.004804194
    0.2723521    -0.9621859   -0.00475105
    0.2722751    -0.9622079  -0.004705403
    0.2722678    -0.9622099   -0.00473755
    0.2722986    -0.9622012  -0.004745306
    0.2724605    -0.9621552  -0.004778887
    0.2722405     -0.962217  -0.004848752
    0.2724382    -0.9621619   -0.00471059
    0.2723557    -0.9621851  -0.004732562
    0.2722929    -0.9622024  -0.004820008
    0.2722805    -0.9622054  -0.004947673
    0.2723491    -0.9621873  -0.004646501
    0.2723234    -0.9621941  -0.004743956
    0.2722272    -0.9622209   -0.00482304
     0.272355    -0.9621847  -0.004806628
    0.2722279    -0.9622204  -0.004910949
    0.2721456    -0.9622459  -0.004426175
    0.2724123    -0.9621683  -0.004869517
    0.2723626    -0.9621821  -0.004920577
    0.2723312    -0.9621915  -0.004849925
    0.2723407    -0.9621888  -0.004841227
    0.2722551    -0.9622143  -0.004554285
    0.2724927    -0.9621465  -0.004696691
    0.2721372    -0.9622459   -0.00492317
    0.2721172    -0.9622524   -0.00474487
    0.2721805     -0.962236  -0.004442307
    0.2721546    -0.9622412  -0.004879498
    0.2722491    -0.9622147  -0.004817759
    0.2721134    -0.9622516   -0.00510241
    0.2723923    -0.9621748  -0.004732602
    0.2723152    -0.9621953  -0.004951636
     0.272293     -0.962203  -0.004678452
     0.272418    -0.9621677  -0.004663248
    0.2724527    -0.9621577  -0.004693318
    0.2725812     -0.962121  -0.004760026
    0.2723612    -0.9621832  -0.004763641
    0.2724933    -0.9621462   -0.00468851
    0.2725163    -0.9621387  -0.004911047
    0.2725482    -0.9621317  -0.004473589
    0.2724078    -0.9621691  -0.004949922
    0.2724726    -0.9621519  -0.004731972
    0.2725128    -0.9621408  -0.004638954
     0.272478    -0.9621494  -0.004904867
     0.272426    -0.9621652   -0.00471368
    0.2725841    -0.9621198  -0.004822202
     0.272378    -0.9621787  -0.004713617
    0.2725463    -0.9621298  -0.004967423
    0.2723649     -0.962182  -0.004801947
    0.2724267    -0.9621658  -0.004549721
    0.2723449    -0.9621876  -0.004830482
    0.2723188    -0.9621942  -0.004995685
    0.2724165    -0.9621686  -0.004568321
    0.2724324    -0.9621636  -0.004640473
    0.2723496    -0.9621858  -0.004901822
    0.2724315     -0.962164  -0.004627582
    0.2724766    -0.9621504   -0.00481759
    0.2724601    -0.9621546  -0.004899214
    0.2725034    -0.9621428  -0.004819359
    0.2724054    -0.9621704  -0.004811233
    0.2722659    -0.9622105  -0.004720633
    0.2724898    -0.9621464  -0.004866753
    0.2725044    -0.9621415  -0.005005872
    0.2724461    -0.9621599  -0.004635808
    0.2724109    -0.9621685   -0.00492362
    0.2723093    -0.9621987  -0.004650583
    0.2724192    -0.9621657  -0.004975115
    0.2725218    -0.9621375  -0.004841287
    0.2724153    -0.9621687  -0.004630858
    0.2724486    -0.9621591  -0.004662816
    0.2724148    -0.9621683  -0.004748181
    0.2723752    -0.9621792  -0.004766033
    0.2722821    -0.9622049  -0.004929888
    0.2725647    -0.9621254  -0.004825748
    0.2723614    -0.9621842  -0.004574816
    0.2723003       -0.9622  -0.004868365
       0.2723    -0.9622009  -0.004685584
    0.2723594    -0.9621848  -0.004553517
    0.2723346    -0.9621902  -0.004898847
    0.2723168    -0.9621945  -0.005037772
    0.2723012    -0.9621998  -0.004833635
    0.2724528    -0.9621576  -0.004710394
    0.2723139    -0.9621976  -0.004583782
    0.2722245    -0.9622233  -0.004497852
    0.2724749    -0.9621499  -0.005032549
    0.2724036    -0.9621714  -0.004748802
    0.2724995    -0.9621452  -0.004523202
    0.2723002    -0.9622009  -0.004686059
    0.2724707    -0.9621512  -0.004994891
     0.272355    -0.9621851  -0.004756395
    0.2724146    -0.9621688  -0.004628957
    0.2726022    -0.9621155  -0.004638053
    0.2723579    -0.9621825  -0.005089758
    0.2724118    -0.9621696  -0.004631299
    0.2723362    -0.9621917  -0.004468664
    0.2720692    -0.9622657  -0.004804184
    0.2724314    -0.9621634  -0.004768223
    0.2725358    -0.9621334  -0.004893154
    0.2724521    -0.9621567  -0.004941606
    0.2723063    -0.9621991  -0.004734579
    0.2723597    -0.9621843   -0.00466346
    0.2724356    -0.9621613  -0.004945266
    0.2723792    -0.9621782  -0.004768884
    0.2722685    -0.9622096  -0.004778404
    0.2724225    -0.9621658  -0.004805573
    0.2724091    -0.9621695  -0.004782716
    0.2723098    -0.9621977  -0.004789839
    0.2722825    -0.9622057  -0.004757493
    0.2723846    -0.9621753   -0.00503547
    0.2723589    -0.9621847   -0.00460651
    0.2723479     -0.962187  -0.004758489
    0.2723309    -0.9621916  -0.004826308
    0.2723882    -0.9621749  -0.004906686
    0.2726061    -0.9621151  -0.004527951
    0.2724532    -0.9621554  -0.005120231
    0.2723758      -0.96218   -0.00458577
    0.2723527    -0.9621866  -0.004580169
    0.2724465    -0.9621575  -0.005083057
    0.2762135    -0.9610882  -0.003936671
    0.2841807    -0.9587693  -0.001722748
    0.2937457    -0.9558153    0.01145473
    0.3107412    -0.9501533    0.02546421
    0.3276874    -0.9445874    0.01937552
    0.3492911     -0.936973   0.008813904
    0.3691515     -0.929365   0.002804548
    0.3937143    -0.9192229  -0.004252794
    0.4221853      -0.90649  -0.005981145
    0.4478653    -0.8940766  -0.006612327
    0.4722363    -0.8814462  -0.006744054
    0.4962516    -0.8681332  -0.008898253
    0.5224779    -0.8525997  -0.009515587
    0.5508215    -0.8345395   -0.01182567
    0.5787359    -0.8154197   -0.01247352
    0.6088334    -0.7932237   -0.01088994
     0.639534    -0.7686863   -0.01084654
    0.6684608    -0.7437154  -0.006916056
    0.6955484    -0.7184519   -0.00629102
    0.7200132    -0.6939434  -0.004872441
    0.7437226    -0.6684806   -0.00322317
    0.7662399    -0.6425545  0.0002649825
    0.7873084    -0.6165501   0.003362135
    0.8077944    -0.5894313   0.006241586
    0.8269398    -0.5622333   0.008026469
    0.8452346    -0.5343351   0.008038149
    0.8636736    -0.5039322    0.01096784
    0.8803909    -0.4740924    0.01217378
    0.8973802    -0.4410562     0.0133536
    0.9131777    -0.4072764    0.01525188
    0.9278679    -0.3726175    0.01474219
    0.9411785    -0.3375243     0.0161326
    0.9533879    -0.3013009    0.01640621
    0.9643862    -0.2640578    0.01525114
    0.9739051    -0.2263097    0.01711744
    0.9818222    -0.1889948    0.01750218
     0.987578    -0.1560072     0.0187518
    0.9910322    -0.1318337    0.02179152
    0.9935473    -0.1113064    0.02179081
    0.9950792   -0.09688747    0.02074887
     0.996205    -0.0845759    0.02056539
    0.9974889   -0.06712563    0.02258761
    0.9986637   -0.04647572    0.02260582
    0.9993122   -0.02769841    0.02466179
    0.9996693  -0.007265687    0.02467498
    0.9995157    0.01457432     0.0274972
     0.998831    0.03914404    0.02836978
    0.9974514    0.06499625    0.02943315
    0.9954774    0.08979237     0.0310182
    0.9928648     0.1140607     0.0347781
    0.9902135     0.1351017    0.03499794
    0.9885642     0.1468954    0.03409396
    0.9867673     0.1584271    0.03451687
    0.9849532      0.169971    0.03126185
    0.9830751     0.1803073    0.03245138
    0.9810528     0.1908187    0.03351989
    0.9785239     0.2033412    0.03381374
    0.9760352     0.2147312     0.0352977
    0.9735476     0.2258852    0.03436226
    0.9707363     0.2378271    0.03330981
    0.9680448     0.2482531    0.03549407
    0.9643818     0.2622806    0.03430584
    0.9582458     0.2840257    0.03308534
    0.9501606       0.31061    0.02677085
    0.9354103     0.3531539    0.01701923
    0.9143355     0.4046143    0.01666887
    0.8858356     0.4635027      0.021468
    0.8509481     0.5247623    0.02262915
    0.8158068     0.5776798    0.02730433
    0.7807914     0.6241506    0.02830296
    0.7511624     0.6593212     0.0324149
    0.7303307      0.682074    0.03731512
    0.7165324     0.6962848     0.0420572
    0.7053764     0.7075237     0.0430592
    0.6961467     0.7167505    0.04060397
    0.6835769     0.7287331    0.04087359
    0.6700672      0.741294    0.03863993
    0.6523576      0.757096    0.03514979
    0.6316389     0.7743738    0.03711423
    0.6084957     0.7926022    0.03892284
    0.5831041     0.8116766    0.03421922
    0.5594493     0.8282274    0.03249244
    0.5369208     0.8431801    0.02763097
    0.5190163     0.8543655    0.02611282
    0.5021804     0.8643374    0.02712394
    0.4842144     0.8744535    0.02945555
    0.4654512     0.8846124     0.0285746
    0.4459153     0.8945913    0.02942939
    0.4268718     0.9038692    0.02829806
    0.4075149     0.9127499    0.02862049
    0.3876903     0.9213305    0.02909679
    0.3679205     0.9294383    0.02791126
    0.3476051     0.9372784    0.02607253
    0.3270618     0.9446573    0.02555759
    0.3067926      0.951473    0.02403477
    0.2878861     0.9573545    0.02437113
    0.2706839     0.9624013    0.02266911
    0.2566458       0.96629     0.0204051
    0.2446259     0.9694118    0.01997366
    0.2354901     0.9716976    0.01867353
    0.2243331     0.9743463    0.01800714
    0.2122211     0.9770734    0.01703519
     0.200304     0.9796275    0.01442966
    0.1867469     0.9823207    0.01311461
    0.1745125     0.9845712    0.01284897
    0.1616706     0.9867614    0.01283512
    0.1486878      0.988832    0.01017519
    0.1364345     0.9906148    0.00824613
    0.1250026     0.9921218   0.008322988
    0.1118893     0.9936296    0.01346517
    0.1010237     0.9947943    0.01336205
   0.08900259     0.9959317    0.01409727
   0.07828228     0.9968257    0.01450569
    0.0671649      0.997621    0.01552918
   0.05606308     0.9983092    0.01535684
   0.04516158     0.9988628     0.0152944
   0.03351678     0.9993269    0.01491462
   0.02236202      0.999642    0.01469262
   0.01140003     0.9998539    0.01273278
 0.0004502946     0.9999164    0.01291274
 -0.009879841     0.9998675    0.01294696
  -0.02041146      0.999726    0.01147089
  -0.02923079     0.9995179    0.01045945
  -0.03674287     0.9992814   0.009310668
  -0.04296656     0.9990497   0.007315102
  -0.04790875     0.9988425   0.004285973
  -0.05231904     0.9986252    0.00327063
  -0.05799821     0.9983083   0.004102843
  -0.06395411     0.9979479    0.00314038
  -0.07107072     0.9974629   0.004113035
  -0.07944085     0.9968329   0.003658485
   -0.0902426     0.9959052   0.005410624
  -0.09887017     0.9950891   0.004786499
   -0.1082896     0.9941196   -0.00018389
   -0.1165139     0.9931891 -0.0003716201
   -0.1243555     0.9922368  -0.001440393
   -0.1328306     0.9911384  -0.001081081
   -0.1399492     0.9901583   0.001152188
   -0.1467061     0.9891803 -0.0004151776
   -0.1506267     0.9885897   0.001442658
    -0.149344     0.9887807   0.003069291
   -0.1454512     0.9893656  0.0003434926
    -0.138331     0.9903786  -0.003880259
    -0.127945     0.9917697  -0.004804144
   -0.1214526     0.9925423   -0.01044912
   -0.1223628     0.9924072   -0.01246102
   -0.1223502     0.9923664   -0.01546897
   -0.1302666     0.9913455   -0.01628648
   -0.1412869     0.9898731   -0.01374909
   -0.1493068     0.9886928   -0.01393474
   -0.1530047     0.9881159   -0.01472091
   -0.1559478     0.9876624   -0.01426806
   -0.1609597     0.9869087   -0.01015438
   -0.1639992     0.9864397  -0.006403776
   -0.1665895     0.9860123  -0.005258988
   -0.1704982      0.985318  -0.008872326
   -0.1730509     0.9848531   -0.01085586
   -0.1752976      0.984421   -0.01363966
   -0.1779899     0.9839051     -0.015832
   -0.1798499     0.9835045    -0.0192981
   -0.1808922     0.9833214   -0.01890027
   -0.1820824     0.9831367   -0.01698158
    -0.183093     0.9829817   -0.01498178
   -0.1849772     0.9826748   -0.01156643
   -0.1857725     0.9825401   -0.01016375
   -0.1861629     0.9824807  -0.008654464
   -0.1862869     0.9824799  -0.005505578
   -0.1856912     0.9826005  -0.003880461
   -0.1836411     0.9829807  -0.005013091
   -0.1831073     0.9830666  -0.007190128
    -0.181425     0.9833761   -0.00750342
   -0.1793577     0.9837434  -0.008925806
   -0.1776984     0.9840214   -0.01118793
   -0.1743654     0.9845782   -0.01423465
   -0.1720402     0.9849654   -0.01567407
   -0.1681915     0.9855852   -0.01826374
   -0.1659124     0.9860582   -0.01273936
    -0.163871      0.986447  -0.008301581
   -0.1608353     0.9869571  -0.006910779
   -0.1565366     0.9876642  -0.003995874
   -0.1525119      0.988301   0.001036311
     -0.14757     0.9890421   0.004364179
   -0.1409989     0.9899874   0.006657645
    -0.134557     0.9908972   0.004198458
   -0.1281097     0.9917592   0.001249919
   -0.1218491     0.9925487 -5.624658e-05
   -0.1161378     0.9932313  -0.001858314
   -0.1098478     0.9939466  -0.001917157
   -0.1034333     0.9946338  -0.002330987
  -0.09675204     0.9953082  -0.000913369
  -0.09045291     0.9958997  -0.001594907
   -0.0831304     0.9965355  -0.002547901
  -0.07625305     0.9970884 -0.0006543376
  -0.06888357     0.9976246  0.0006558873
  -0.05964813     0.9982185   0.001395328
  -0.05174365     0.9986573   0.002501779
  -0.04139711     0.9991417     0.0015241
  -0.03139705     0.9995064    0.00102753
  -0.02255027     0.9997435   0.002098222
  -0.01436123      0.999893    0.00283345
 -0.006738833     0.9999734   0.002855406
 0.0009828255     0.9999924   0.003786333
  0.008067425     0.9999571   0.004532691
   0.01504973     0.9998754   0.004785522
   0.02173332     0.9997531   0.004659536
   0.02449144     0.9996806   0.006230972
   0.02637547     0.9996207   0.007930496
   0.02288125     0.9997014   0.008572361
   0.01721341     0.9998237   0.007497631
  0.009192008     0.9999408   0.005818065
 -0.001509948     0.9999518   0.009714389
  -0.02513149     0.9996475    0.00858086
  -0.05171936     0.9986565  -0.003244348
   -0.0765055     0.9970108   -0.01079455
   -0.1027776     0.9945893   -0.01512645
    -0.129857     0.9913666   -0.01814858
   -0.1544007     0.9877916   -0.02070107
   -0.1801061      0.983436   -0.02038578
   -0.2054387     0.9784791   -0.01932665
   -0.2313848     0.9726431   -0.02065941
   -0.2578898     0.9658794    -0.0238717
   -0.2852854     0.9580747   -0.02655493
   -0.3150862     0.9486519   -0.02793024
   -0.3454638     0.9381005   -0.02495181
   -0.3775962     0.9255869   -0.02664908
   -0.4094212     0.9119022   -0.02843244
   -0.4424284     0.8963686   -0.02793927
   -0.4773834     0.8782439   -0.02815643
   -0.5121071      0.858474   -0.02772828
   -0.5472069     0.8364738   -0.02960678
   -0.5801142     0.8140263   -0.02879051
   -0.6096706     0.7921572    -0.0280853
   -0.6336916     0.7732351   -0.02329594
   -0.6539547     0.7562304   -0.02141965
   -0.6729839     0.7392345   -0.02499831
   -0.6921106       0.72128   -0.02716764
   -0.7129271      0.700567    -0.0306768
   -0.7347002       0.67762   -0.03236054
     -0.75837     0.6507655    -0.0371355
   -0.7837557     0.6197259   -0.04082854
   -0.8113317     0.5828374   -0.04518153
   -0.8370471     0.5452358    -0.0454994
   -0.8619712     0.5049435   -0.04513912
   -0.8845734     0.4639146   -0.04809591
   -0.9054808     0.4215264   -0.04919579
   -0.9254045     0.3758706    -0.0484526
   -0.9429846     0.3292889   -0.04846507
   -0.9577229     0.2836596   -0.04800235
   -0.9697028     0.2398353   -0.04642855
   -0.9784993     0.2011969   -0.04537787
   -0.9849938      0.166687   -0.04475397
   -0.9897766     0.1350252   -0.04594219
   -0.9934394     0.1047807   -0.04581994
   -0.9960823    0.07682689   -0.04379357
   -0.9976107    0.05228335   -0.04515675
   -0.9985184    0.02892265   -0.04609085
   -0.9989051   0.007710171   -0.04614394
   -0.9988605   -0.01095895   -0.04645141
      -0.9985   -0.02730686   -0.04745972
   -0.9979332   -0.04121675   -0.04929994
   -0.9973654   -0.05225117   -0.05032192
   -0.9967203   -0.06432059    -0.0491066
    -0.995855   -0.07600079   -0.04996511
   -0.9948075   -0.08876375   -0.04979195
   -0.9937886     -0.100958   -0.04681892
   -0.9925748    -0.1133374   -0.04415769
   -0.9911742    -0.1252609    -0.0433943
   -0.9895731    -0.1373423   -0.04338491
   -0.9880825    -0.1484477   -0.04069881
   -0.9867721    -0.1562539   -0.04319381
   -0.9857947    -0.1622032   -0.04357682
   -0.9855776    -0.1636687   -0.04300106
   -0.9857182    -0.1635161   -0.04027891
   -0.9858918    -0.1628118   -0.03885151
   -0.9859536    -0.1620937   -0.04026527
   -0.9861732    -0.1608981   -0.03967748
   -0.9865883    -0.1586726   -0.03829981
   -0.9867146    -0.1579093   -0.03820048
    -0.987466    -0.1521501   -0.04196677
   -0.9882978    -0.1446956   -0.04828126
   -0.9892202    -0.1330315   -0.06120728
   -0.9913802    -0.1149778   -0.06281286
   -0.9933495    -0.1006037   -0.05599593
    -0.994584   -0.08860327   -0.05433342
   -0.9953133    -0.0801941   -0.05404104
   -0.9957748   -0.07606415   -0.05145037
   -0.9959318    -0.0771917   -0.04649104
   -0.9957014   -0.08329715   -0.04049885
   -0.9953539   -0.08611596   -0.04306715
   -0.9953011   -0.08651867   -0.04347738
   -0.9955937   -0.08257031   -0.04444597
   -0.9960682   -0.07554156   -0.04628137
   -0.9970698   -0.06282169    -0.0436503
   -0.9979101   -0.04771143   -0.04357858
   -0.9985182   -0.03262559   -0.04355577
    -0.998993   -0.01767873   -0.04124074
   -0.9992242  -0.004132601   -0.03916527
   -0.9992717    0.00630198   -0.03763495
   -0.9992027    0.01638485   -0.03640778
   -0.9990695    0.02469561   -0.03536304
    -0.998843    0.03254172    -0.0354087
   -0.9985949    0.04019906   -0.03452789
    -0.998342    0.04631286   -0.03418957
   -0.9980276     0.0541712   -0.03171672
   -0.9978757    0.06034769   -0.02454224
   -0.9973955     0.0679619   -0.02415491
   -0.9967579     0.0774811   -0.02168498
   -0.9959986    0.08749671   -0.01819925
   -0.9951921    0.09726774   -0.01148483
    -0.994136     0.1078787    -0.0074651
   -0.9930471     0.1173759  -0.008980339
   -0.9917787      0.127572    -0.0100237
   -0.9911265     0.1325824  -0.009478994
   -0.9907513     0.1352203   -0.01130905
   -0.9912071     0.1317082   -0.01271456