# vtk DataFile Version 3.0
File created by libpointmatcher
ASCII
DATASET POLYDATA
POINTS 2444 float
 7.450581e-09             0             0
-0.0003488064   0.001614273   0.000158608
 0.0001673549   0.003998697  0.0006194115
 -0.001980044   0.002818108 -8.225441e-05
 -0.001107559   0.001141489  0.0002388358
 -0.001902767   0.003136158  5.936623e-05
 -0.001971401   0.003216445  8.898973e-05
-0.0004139692   0.001085937  0.0004564524
-0.0005934387   0.001432359   0.000336349
 0.0005411878  0.0007574558 -1.323223e-05
-8.354336e-05   0.001961589 -6.073713e-05
 -0.001348227   0.002520263  0.0002222061
 1.394749e-05  0.0003965497 -9.936094e-05
-0.0005309135  0.0005920529 -0.0001264811
 -0.001100704   0.001252115  0.0002146959
 -0.001603939  0.0009916425 -0.0002676249
-0.0005072579   0.001276433 -7.820129e-05
 0.0008035153  -0.000385344 -0.0001104474
  0.002937496  0.0008179545  8.636713e-05
   0.00243926  0.0007146597  0.0002761483
  0.003768221   0.001038849  0.0002064705
  0.001492321   0.001252294  5.483627e-05
  0.003129356    0.00127393  0.0002035499
-0.0003236383   0.001207471 -3.105402e-05
 0.0006816387   0.001217663 -0.0001579523
-0.0005460232  0.0008494854  0.0002105236
-0.0007995665   0.001116574  -0.000161469
-0.0001719743  0.0003422499  -0.000105679
 0.0001431331  0.0001520514   7.95722e-05
 -0.000116542   0.001199663  0.0002266169
   0.00313542   0.000146687 -0.0001683235
  0.002928361   0.001680851  0.0001109838
  0.002432659  0.0009613633  0.0002009869
  0.002377994  0.0006808043 -0.0002467036
  0.003168173      0.001589 -1.651049e-05
  0.002802253  0.0002018809  7.152557e-06
   0.00342162  -0.000295341  0.0001593232
  0.004322574  0.0001357794  0.0003457069
  0.003796786   0.000605464 -9.292364e-05
  0.002838746   0.001629531  1.227856e-05
  0.002574086  0.0002980828  0.0001131892
  0.002566755  0.0008571744  0.0001140833
  0.003848538   0.000203371  4.178286e-05
  0.004311904  0.0004003048  7.623434e-05
  0.003176972  0.0001814365 -3.808737e-05
  0.004394978   0.001285553  8.845329e-05
-0.0005562156   0.001404464 -0.0001445413
 -0.001039781  0.0006688237 -0.0003738999
 -0.002788886   0.001697898 -0.0003498793
 -0.003151618     0.0026474 -0.0003564358
 -0.004180491   0.002731025 -0.0003328323
 -0.004503362   0.002664566 -0.0005903244
 -0.003653288   0.003803074 -0.0004041791
 -0.002421692   0.003183663 -0.0006012917
 -0.003199987   0.003223419 -0.0006719232
 -0.003716111    0.00331986 -0.0003654361
 -0.002912067   0.003200948 -0.0004743338
 -0.002834283   0.001205087 -0.0003944039
 -0.002087452   0.001632214 -0.0006293654
 -0.002253883  0.0009847879 -0.0004073977
 -0.002772085   0.001357615 -0.0005139112
 -0.002107926    0.00156796 -0.0005865097
 -0.002827011  0.0009769797 -0.0007773042
 -0.003534667   0.001038969 -0.0006118417
 -0.004301384   0.001093626 -0.0005904436
 -0.002677031   0.001098514 -0.0007879734
 -0.003547102  0.0007898808 -0.0007754564
 -0.001565285  0.0006685257 -0.0008018613
  0.001963548 -0.0003549457 -0.0002975464
  0.002599537 -0.0006229281 -0.0003982186
  0.003251113  -0.001733482 -0.0005147457
   0.00263904  -0.001792789 -0.0002484918
  0.005121753  -0.001832664 -0.0005913973
  0.003537066 -0.0003241897 -0.0007451177
  0.003520936 -0.0006221533 -0.0008613467
  0.004691489  9.155273e-05 -0.0005810261
  0.003658816  0.0003698468 -0.0006479621
  0.003226355 -0.0006675124 -0.0008127689
  0.004264921   0.001049995 -0.0006608367
  0.007061109  -0.001370549 -0.0003055334
  0.006164961  -0.001255214 -0.0003409386
  0.006274022  -0.001222253 -0.0001921058
  0.006637529  -0.002471864 -0.0003089309
  0.005028471  -0.002564549 -0.0003312826
  0.005208373  -0.001725495  -2.82526e-05
 -0.000227116  -0.001253009 -0.0006471276
-0.0001535192  -0.001693189 -0.0004851222
 0.0002810135  -0.001787364 -0.0004805923
 -7.24718e-05  -0.002008796 -0.0006110072
-0.0004858226   -0.00188905 -0.0006999373
 -0.001136981  -0.002076447 -0.0007362962
  0.002889216   -0.00332886 -0.0002379417
  0.002966218  -0.003091693 -0.0005129576
   0.00293529   -0.00410825 -0.0003501773
  0.003125295  -0.003608406 -0.0005851388
   0.00265561  -0.002288163 -0.0006074905
  0.001251452  -0.002071559 -0.0006850958
  0.003022291  -0.002530396  -0.000402391
  0.001132131  -0.001854122 -0.0009518266
  0.003002174  -0.002604246 -0.0009031892
  0.003760204  -0.004005492 -0.0007718205
  0.003024735  -0.003576279 -0.0008347034
  0.003067739   -0.00358212 -0.0007790327
  0.001498729  0.0003861785 -0.0008806586
  0.003207125  9.632111e-05  -0.001016021
  0.003987685  -0.001078248 -0.0007768869
    0.0061858  -0.000390172 -0.0007486939
  0.005256578 -0.0008273721 -0.0006819367
  0.003011122  0.0007508993 -0.0007843375
  0.002535157    0.00136584 -0.0004506707
  0.004876062   0.001546383   -0.00022614
  0.004784718  0.0008573532 -0.0003424287
  0.005384393   0.001176894 -0.0001986623
  0.006787822  0.0004294515 -0.0002734661
   0.00486102  -0.001032114 -0.0007978082
  0.003424399  -0.001294434 -0.0008584857
  0.003120273 -0.0005812645 -0.0005379915
  0.004617393  -0.002219081 -0.0005466938
  0.004947014  -0.002711356 -0.0008590221
  0.005124792  -0.001831293 -0.0006024241
   0.00417652 -0.0009030104  -0.000376761
  0.003474385  -0.002387881 -0.0005865693
  0.003834844  -0.001889884 -0.0004532337
   0.00548543  -0.001356602 -0.0002340078
  0.004046313  -0.001288235 -0.0003050566
  0.004771613  -0.002445102 -0.0004396439
  0.005766906  -0.002041161 -0.0004578233
  0.003914267   -0.00155288 -0.0005139112
  0.003560632  -0.001618803 -0.0006011128
  0.003980808  -0.001927018 -0.0005523562
  0.006699063  -0.001522124 -0.0008637309
  0.006378897  -0.001661897  -0.000724256
  0.005200945   -0.00164032 -0.0008496046
  0.005998716  -0.002115488 -0.0008473992
  0.005946659  -0.002743781 -0.0005999207
  0.006082043  -0.002134204 -0.0007886887
  0.005536139  -0.002150416 -0.0006114841
  0.006120697  -0.003423154 -0.0005568266
  0.006222382  -0.002736092 -0.0007387996
  0.005486593   -0.00271827 -0.0009695292
  0.005563863  -0.003596187 -0.0009572506
  0.006859802  -0.002544701 -0.0004183054
  0.003777362  -0.001365423 -0.0009582639
  0.003088765  -0.003001988   -0.00103122
  0.004304066  -0.002119064 -0.0008990169
  0.003685445  -0.001819015 -0.0009323359
  0.005361497  -0.002566636 -0.0007952452
  0.004606679  -0.002652943  -0.001009464
  0.003860608  -0.001759171 -0.0008609295
  0.004884608  -0.003192544 -0.0009335876
  0.003358543  -0.001876652 -0.0008866191
  0.003253587  -0.001595974 -0.0009818673
  0.004282452  -0.002169788  -0.001140594
  0.003875561  -0.002485633  -0.001116812
  0.004234098  -0.002524436 -0.0008733869
  0.005302787  -0.003232956 -0.0007067323
  0.004208907  -0.002370298  -0.001194298
  0.006081149  -0.002720654 -0.0008625984
  0.004621238  -0.002660453  -0.001064181
   0.00576292  -0.003664553 -0.0008559227
  0.004442744  -0.002398074 -0.0009989142
  0.005367287  -0.002956986 -0.0009141564
  0.005019322  -0.002919495  -0.001184762
  0.004795521  -0.002177656  -0.001233101
  0.005154707  -0.001874983  -0.001114964
  0.005136162  -0.002293706  -0.001296043
  0.004966289  -0.001645923  -0.001279354
  0.005183198  -0.002717972  -0.001186669
  0.005747348  -0.003036559  -0.001238465
  0.004845023  -0.001666248  -0.001010418
  0.005267203  -0.002691567   -0.00107193
  0.005193591  -0.002569258  -0.001067102
   0.00533466  -0.002879918  -0.001048803
  0.004559346  -0.002275646  -0.001361966
  0.004728407  -0.002816081  -0.001199186
  0.007710293  -0.002392232   -0.00073421
  0.007932581  -0.001417637  -0.001177073
  0.008450225  -0.002456605 -0.0009934306
  0.007364571  -0.002156436 -0.0009752512
  0.007286154  -0.002265573  -0.001216054
  0.008992165  -0.002196193  -0.001174092
  0.007535413  -0.003449976  -0.001217246
  0.004625924  -0.001719534  -0.001405418
  0.005231291  -0.002276123  -0.001128376
  0.002991676  -0.002217233  -0.001357019
  0.003726721  -0.002904356  -0.001408696
   0.00428506  -0.001305521  -0.001419306
  0.004405096  -0.001643419  -0.001337349
  0.004483551  -0.001678348   -0.00151962
  0.004674681  -0.002148271  -0.001406848
  0.003905959  -0.001880348  -0.001611114
  0.005145684 -0.0008440018  -0.001232743
  0.003249802  -0.002273619  -0.001720071
  0.003774628  -0.002055049  -0.001801789
   0.00522615  -0.001780927  -0.001552641
  0.004144639  -0.002114356  -0.001992047
  0.002947196  -0.001733601  -0.001696348
  0.002940446  -0.001342475  -0.001692176
  0.003531225 -0.0007974505  -0.001736641
  0.003231406  -0.000834167  -0.001775205
  0.003804579  -0.001478016  -0.001614451
  0.002977863  -0.001449347  -0.001703382
  0.002762713  -0.001474738  -0.001945555
  0.002606302  -0.001836777  -0.001653373
  0.003931224  -0.002152562  -0.001744211
  0.003947526  -0.001479685  -0.001677275
  0.002993844   -0.00102669  -0.001353204
  0.002507038 -0.0004174113  -0.001569867
  0.003096536  4.863739e-05  -0.001605868
  0.002730988  0.0001835227  -0.001475453
  0.003501341  -0.002081811  -0.001548707
  0.004073456  -0.001388133  -0.001834273
  0.003816418  -0.001128495  -0.001465738
  0.004011124  -0.001477361  -0.001492977
  0.003537834  -0.001569808  -0.001842201
  0.002635226  0.0003890395   -0.00134635
  0.001870006 -0.0009124279  -0.001802444
  0.003050238  -0.000965178  -0.001746655
   0.00350447 -0.0009041429  -0.001684189
  0.002969369 -3.314018e-05  -0.001793742
  0.004219882 -3.176928e-05  -0.001608193
  0.003928564 -0.0005044937  -0.002071023
  0.004332431  -0.000870645  -0.001882374
  0.003821224  -0.001123548  -0.002088547
  0.004745409  -0.001370668  -0.001832187
  0.003217243  -0.002295494  -0.001902103
  0.004042849  -0.003099084  -0.001644373
  0.004204191  -0.002155721   -0.00171417
  0.004185528  -0.003352344  -0.001747251
  0.004315101  -0.003501654  -0.001709223
  0.002570368  -0.002053738  -0.001621366
  0.002673358  -0.001935482  -0.001799107
 0.0009129047 -0.0008894801  -0.001979411
  0.001435384  -0.001903653  -0.001995981
  4.94197e-05  -0.001281381  -0.002056658
[...]
POINT_DATA 2444
VECTORS orientationX float
    0.2924154    -0.9561523   -0.01631146
    0.2918551    -0.9563133   -0.01689356
     0.292067    -0.9562535   -0.01661891
    0.2920862    -0.9562426   -0.01691128
    0.2921353    -0.9562222   -0.01721337
    0.2920097    -0.9562496   -0.01781752
     0.292348    -0.9561466   -0.01778919
    0.2924986    -0.9561069   -0.01744149
    0.2922125    -0.9561878   -0.01779265
    0.2925109    -0.9561091   -0.01710389
    0.2926809    -0.9560658   -0.01661939
    0.2929483    -0.9559814   -0.01676685
    0.2923552    -0.9561682   -0.01646053
    0.2919681    -0.9562798   -0.01684038
    0.2916668    -0.9563715   -0.01685808
    0.2916567    -0.9563773   -0.01669793
    0.2913353    -0.9564667   -0.01718342
    0.2913436    -0.9564672   -0.01701637
    0.2912867    -0.9564806   -0.01722687
    0.2908286    -0.9566336   -0.01645741
    0.2910519    -0.9565715   -0.01613098
    0.2911587    -0.9565406   -0.01602095
    0.2912374    -0.9565182   -0.01593775
    0.2917883    -0.9563444   -0.01628914
    0.2916541    -0.9563883   -0.01611095
    0.2912623    -0.9565081   -0.01608632
     0.290916    -0.9566197   -0.01570396
    0.2907947    -0.9566493    -0.0161379
    0.2906281    -0.9566941   -0.01648655
    0.2908049    -0.9566425   -0.01636535
    0.2905255    -0.9567127   -0.01720335
    0.2902555    -0.9567878   -0.01757595
    0.2902462    -0.9567997   -0.01708028
    0.2902339    -0.9567972   -0.01741684
    0.2903597    -0.9567538   -0.01770453
    0.2900277    -0.9568651   -0.01713321
     0.290016    -0.9568714   -0.01696139
    0.2895648    -0.9570123   -0.01672571
     0.289355    -0.9570683   -0.01714495
    0.2891091     -0.957145    -0.0170139
    0.2885432    -0.9573224   -0.01662894
    0.2891082    -0.9571449   -0.01702753
    0.2893274    -0.9570802   -0.01694107
    0.2893716    -0.9570573    -0.0174773
    0.2895457    -0.9570086   -0.01725707
    0.2893539    -0.9570696   -0.01709478
    0.2897654    -0.9569502   -0.01680173
    0.2899327    -0.9568993   -0.01681181
     0.290181    -0.9568242    -0.0168121
     0.290185    -0.9568256   -0.01665918
    0.2900239    -0.9568709   -0.01685764
    0.2901312    -0.9568389   -0.01682573
    0.2901836    -0.9568251   -0.01671216
    0.2903324    -0.9567751   -0.01699756
    0.2898459    -0.9569269   -0.01674522
    0.2897108    -0.9569632   -0.01700902
    0.2898027    -0.9569308   -0.01727087
    0.2894796    -0.9570415    -0.0165309
    0.2895945    -0.9569932   -0.01729226
    0.2894999    -0.9570241   -0.01717021
    0.2895487    -0.9570066   -0.01731174
    0.2892133    -0.9571083   -0.01731228
    0.2891611     -0.957119   -0.01758137
    0.2888265    -0.9572293   -0.01706688
    0.2891315    -0.9571385   -0.01700759
    0.2889108    -0.9571985   -0.01737958
     0.288893    -0.9572055   -0.01729135
     0.289453    -0.9570259   -0.01785102
    0.2886511    -0.9572817   -0.01710468
    0.2884017    -0.9573577   -0.01704937
    0.2881101    -0.9574393   -0.01739768
    0.2881409    -0.9574333   -0.01722231
    0.2877205    -0.9575721   -0.01651367
    0.2873448    -0.9576788   -0.01686403
    0.2872588    -0.9577011   -0.01707147
    0.2870082    -0.9577811   -0.01678599
    0.2868467    -0.9578269   -0.01694757
    0.2868259    -0.9578267   -0.01729169
    0.2871524    -0.9577308   -0.01717518
    0.2880144    -0.9574717   -0.01719672
    0.2882876      -0.95739   -0.01716964
    0.2885856    -0.9572992   -0.01721704
     0.288776    -0.9572436   -0.01712351
    0.2893761    -0.9570705   -0.01665778
    0.2895413    -0.9570124   -0.01713089
    0.2905394    -0.9567128   -0.01696723
    0.2903275    -0.9567746    -0.0170911
    0.2900478    -0.9568623    -0.0169381
    0.2900119    -0.9568672   -0.01727341
    0.2899078     -0.956912   -0.01651867
    0.2894927    -0.9570216   -0.01742284
    0.2891187    -0.9571385   -0.01721218
    0.2888644    -0.9572209   -0.01690482
    0.2887349    -0.9572629   -0.01672575
    0.2888174    -0.9572427   -0.01646689
    0.2889055    -0.9572041   -0.01715209
    0.2888679    -0.9572212   -0.01683012
    0.2889232    -0.9572095   -0.01654026
    0.2893957    -0.9570706   -0.01631326
    0.2894937     -0.957031   -0.01688402
    0.2898494    -0.9569216   -0.01698628
    0.2900789    -0.9568439    -0.0174302
    0.2903897    -0.9567506   -0.01738147
    0.2897006    -0.9569646   -0.01710016
    0.2898508    -0.9569225   -0.01691333
    0.2900325    -0.9568654   -0.01702015
    0.2897965    -0.9569427     -0.016695
    0.2898157    -0.9569236   -0.01744248
    0.2894417    -0.9570399   -0.01726872
    0.2890257    -0.9571673   -0.01718458
    0.2888415    -0.9572246   -0.01708699
    0.2888692    -0.9572163   -0.01706986
    0.2888289    -0.9572294   -0.01702887
    0.2890474    -0.9571705   -0.01663464
    0.2890885    -0.9571472   -0.01722724
    0.2893175    -0.9570752   -0.01738992
    0.2890549     -0.957159   -0.01713878
    0.2891081    -0.9571497   -0.01676201
    0.2896746    -0.9569858   -0.01633695
    0.2896874    -0.9569727   -0.01687118
    0.2896775    -0.9569712   -0.01711929
    0.2896287    -0.9569901   -0.01689548
    0.2891531    -0.9571378   -0.01667506
    0.2889071    -0.9572153   -0.01649109
    0.2891182    -0.9571385   -0.01721893
    0.2895235    -0.9570144    -0.0173076
    0.2886303     -0.957278   -0.01765095
    0.2882813     -0.957381   -0.01776665
    0.2879614    -0.9574831   -0.01745417
    0.2880927    -0.9574632   -0.01633661
    0.2886721    -0.9572767   -0.01702069
    0.2889154    -0.9571998   -0.01723128
    0.2891503    -0.9571356   -0.01682856
    0.2889935     -0.957181   -0.01695626
    0.2888817    -0.9572158    -0.0169034
    0.2885934    -0.9572982   -0.01715593
    0.2888096    -0.9572381   -0.01686253
    0.2888931     -0.957202   -0.01747549
    0.2892377    -0.9571117   -0.01669923
     0.289387     -0.957077   -0.01609138
    0.2891952    -0.9571233   -0.01676628
    0.2891193    -0.9571466   -0.01674131
    0.2883683    -0.9573628   -0.01733265
    0.2885282     -0.957323   -0.01686717
    0.2883566    -0.9573702   -0.01711273
    0.2880064    -0.9574702   -0.01741299
    0.2883323    -0.9573819   -0.01687511
    0.2884395    -0.9573384   -0.01748901
    0.2885154    -0.9573253   -0.01694132
    0.2883129     -0.957373   -0.01769451
    0.2885964    -0.9572972   -0.01716062
    0.2885416    -0.9573184   -0.01689643
     0.288789     -0.957244   -0.01688678
     0.289147    -0.9571432   -0.01645635
    0.2895662      -0.95701   -0.01682846
    0.2897699    -0.9569564   -0.01636751
    0.2901381    -0.9568428    -0.0164807
    0.2901118    -0.9568441   -0.01686995
    0.2897276    -0.9569587   -0.01696915
    0.2898661     -0.956918   -0.01690534
    0.2898109    -0.9569344    -0.0169247
    0.2894126    -0.9570531   -0.01701642
    0.2896604    -0.9569703   -0.01746058
    0.2898597    -0.9569182   -0.01700266
    0.2893944    -0.9570627   -0.01678331
    0.2895203    -0.9570224   -0.01691283
      0.29016    -0.9568269   -0.01701287
     0.290201    -0.9568214   -0.01661841
    0.2904642    -0.9567432   -0.01652683
     0.290912    -0.9565984   -0.01702921
    0.2912855     -0.956497   -0.01632405
    0.2911387    -0.9565244     -0.017307
    0.2911813    -0.9565227   -0.01666277
    0.2912331    -0.9565102   -0.01647899
    0.2911599    -0.9565136   -0.01753737
    0.2904869    -0.9567329   -0.01671392
    0.2901426    -0.9568283   -0.01723081
    0.2897463    -0.9569534   -0.01695527
    0.2898768    -0.9569187    -0.0166843
    0.2898356    -0.9569293    -0.0167903
     0.289652    -0.9569839   -0.01684102
    0.2897944    -0.9569386   -0.01696763
    0.2896771    -0.9569709   -0.01714079
    0.2898433    -0.9569305   -0.01657873
    0.2898119    -0.9569311   -0.01708953
    0.2898072    -0.9569449   -0.01637568
     0.289463    -0.9570282   -0.01755763
    0.2892828    -0.9570981   -0.01669537
     0.289306    -0.9570809   -0.01726515
    0.2895333    -0.9570098   -0.01739855
    0.2891155    -0.9571295   -0.01775617
    0.2891937     -0.957112   -0.01742359
    0.2891279    -0.9571393   -0.01701557
     0.288746    -0.9572585   -0.01678781
     0.288943    -0.9572036   -0.01653593
    0.2889541    -0.9571999   -0.01655021
    0.2891707    -0.9571305   -0.01677409
    0.2893775    -0.9570717   -0.01656806
    0.2893376    -0.9570796    -0.0168111
    0.2892346    -0.9571185   -0.01635937
    0.2894203    -0.9570571   -0.01666172
    0.2894187    -0.9570411   -0.01757778
    0.2897126    -0.9569629   -0.01698029
    0.2899162    -0.9569005   -0.01703321
    0.2893703    -0.9570695   -0.01682109
    0.2893874    -0.9570524   -0.01748898
    0.2894685    -0.9570338   -0.01716253
    0.2893784    -0.9570624   -0.01708216
    0.2892239    -0.9571007   -0.01754182
    0.2889676    -0.9571932   -0.01670505
    0.2888542    -0.9572188    -0.0171941
    0.2887984     -0.957239   -0.01701318
    0.2891364    -0.9571342   -0.01714484
    0.2891652    -0.9571342    -0.0166578
    0.2894873     -0.957027   -0.01721838
    0.2892334    -0.9571161   -0.01651521
    0.2894024    -0.9570643    -0.0165612
     0.289564    -0.9569998   -0.01742907
    0.2898145    -0.9569245   -0.01741009
    0.2894509    -0.9570351   -0.01738619
    0.2897528    -0.9569402   -0.01757672
    0.2895696    -0.9570089   -0.01684705
    0.2894261    -0.9570526   -0.01682832
    0.2890158    -0.9571793   -0.01666629
    0.2892237    -0.9571046   -0.01733034
    0.2890614     -0.957155   -0.01726776
    0.2889991    -0.9571909   -0.01627802
     0.288779    -0.9572552   -0.01640303
    0.2888672    -0.9572297   -0.01634501
    0.2890415    -0.9571685   -0.01684298
    0.2893271    -0.9570873   -0.01655189
    0.2890685    -0.9571626   -0.01671373
    0.2894336    -0.9570543   -0.01659556
    0.2896625    -0.9569696   -0.01745146
    0.2893254    -0.9570729   -0.01738929
    0.2897131    -0.9569618   -0.01704004
    0.2896228    -0.9569758   -0.01777964
    0.2900849     -0.956847   -0.01717057
    0.2895024    -0.9570268   -0.01697451
    0.2892858    -0.9570882   -0.01719983
    0.2888592    -0.9572181   -0.01714796
    0.2892083    -0.9571124   -0.01716251
    0.2889994    -0.9571744   -0.01723147
    0.2890214    -0.9571758    -0.0167806
    0.2888233    -0.9572461   -0.01615473
     0.288832     -0.957242   -0.01624767
    0.2888309    -0.9572362    -0.0165948
    0.2885845    -0.9573147   -0.01636038
    0.2894466    -0.9570445   -0.01692837
     0.289422    -0.9570524   -0.01689453
    0.2892648    -0.9571045   -0.01663655
    0.2891067    -0.9571515   -0.01668747
    0.2893529    -0.9570646   -0.01738486
    0.2892196    -0.9571061   -0.01731713
    0.2893328    -0.9570735   -0.01723279
     0.289234    -0.9571075   -0.01700079
    0.2893497    -0.9570777   -0.01671544
    0.2892259    -0.9571186   -0.01650806
    0.2895333    -0.9570246     -0.016576
    0.2895559    -0.9570026    -0.0174185
    0.2893765     -0.957065   -0.01696613
    0.2891773    -0.9571287   -0.01676556
    0.2891504    -0.9571314   -0.01707221
    0.2894211    -0.9570444   -0.01736506
    0.2899003    -0.9568927   -0.01772647
    0.2899666    -0.9568772   -0.01747433
    0.2894315    -0.9570438   -0.01722232
    0.2896345    -0.9569792   -0.01740332
    0.2894847    -0.9570296   -0.01711647
    0.2892761    -0.9570943   -0.01702729
    0.2891947    -0.9571214   -0.01688532
    0.2889543    -0.9571979   -0.01666509
    0.2887285    -0.9572738    -0.0162171
     0.289062    -0.9571683   -0.01649407
    0.2889895    -0.9571841   -0.01684251
     0.289028    -0.9571693   -0.01703409
    0.2889095    -0.9572011   -0.01724234
    0.2890301    -0.9571645   -0.01725479
    0.2887366    -0.9572549   -0.01715146
    0.2887696    -0.9572502   -0.01686209
    0.2893317    -0.9570802   -0.01687221
    0.2889333     -0.957204    -0.0166711
    0.2887378      -0.95726   -0.01683485
    0.2891853    -0.9571313   -0.01647872
    0.2889153    -0.9572191   -0.01610613
    0.2889323    -0.9571989   -0.01699028
    0.2886302    -0.9572937   -0.01678364
    0.2887914    -0.9572424   -0.01693207
    0.2888595     -0.957215   -0.01731313
    0.2887979    -0.9572287   -0.01757945
    0.2883401     -0.957387   -0.01643975
    0.2885148     -0.957337   -0.01628585
    0.2886184    -0.9573019   -0.01650799
    0.2884089    -0.9573531   -0.01719281
    0.2889746    -0.9571854   -0.01703078
     0.288705    -0.9572724   -0.01670849
    0.2886185    -0.9572892   -0.01722896
    0.2885592    -0.9573115   -0.01698735
    0.2889482    -0.9572079    -0.0161942
    0.2889571    -0.9572106   -0.01586666
    0.2896897     -0.956974   -0.01675518
    0.2899718    -0.9568853   -0.01694237
    0.2897756     -0.956937   -0.01737024
     0.289725    -0.9569685   -0.01646361
    0.2897298    -0.9569585   -0.01694399
    0.2894973    -0.9570127   -0.01783769
    0.2896929    -0.9569599   -0.01748278
    0.2895394    -0.9570028   -0.01767243
    0.2892963    -0.9570803   -0.01746354
    0.2884754    -0.9573322   -0.01724125
    0.2878628     -0.957522   -0.01693444
    0.2875371    -0.9576175   -0.01706428
    0.2878307    -0.9575343   -0.01678422
    0.2875023    -0.9576339   -0.01672737
    0.2877393    -0.9575573   -0.01703382
    0.2876406    -0.9575965   -0.01648755
    0.2878671    -0.9575251   -0.01668153
    0.2880952    -0.9574598   -0.01648698
    0.2882818    -0.9574029   -0.01653239
    0.2883129    -0.9573858   -0.01697297
    0.2885988    -0.9573114   -0.01630238
    0.2888999    -0.9572115   -0.01682764
    0.2888263    -0.9572297   -0.01705012
    0.2890614    -0.9571651   -0.01668816
    0.2888906    -0.9572151   -0.01678873
    0.2893728    -0.9570511   -0.01780216
    0.2898109    -0.9569292   -0.01721801
    0.2896938    -0.9569662   -0.01713056
    0.2896047    -0.9569991   -0.01679736
    0.2901308    -0.9568343   -0.01710333
    0.2894876    -0.9570296   -0.01706563
    0.2896026    -0.9569895   -0.01736894
    0.2898014    -0.9569389   -0.01682137
    0.2896717     -0.956981   -0.01667561
    0.2894584    -0.9570471   -0.01657948
    0.2894429     -0.957049   -0.01673431
    0.2889748    -0.9571912   -0.01669692
     0.289032    -0.9571631   -0.01730597
    0.2897632    -0.9569501   -0.01685385
    0.2899253    -0.9568922   -0.01734809
    0.2902341    -0.9568018   -0.01716325
    0.2903337    -0.9567643   -0.01756898
    0.2903922    -0.9567436   -0.01772723
    0.2902836    -0.9567873   -0.01713475
    0.2902509    -0.9568088   -0.01647485
     0.290555    -0.9567041   -0.01718321
    0.2895789    -0.9570305   -0.01537613
    0.2894446    -0.9570501   -0.01664764
    0.2892291    -0.9571096   -0.01697069
    0.2890951    -0.9571522   -0.01684218
    0.2887282     -0.957276   -0.01608818
    0.2893209     -0.957094   -0.01626623
    0.2892402    -0.9570869   -0.01802335
    0.2894707    -0.9570369   -0.01694694
    0.2896583    -0.9569868   -0.01656624
    0.2895068    -0.9570281   -0.01682019
    0.2895057    -0.9570302   -0.01672595
     0.289626    -0.9570075   -0.01592878
    0.2896511     -0.956987   -0.01667541
    0.2894504    -0.9570567   -0.01614879
    0.2891783    -0.9571469   -0.01567124
    0.2890906    -0.9571582   -0.01658694
    0.2891612    -0.9571406   -0.01636187
    0.2893546    -0.9570642   -0.01738322
    0.2898047    -0.9569325   -0.01712586
    0.2896385    -0.9569939   -0.01649979
    0.2899944    -0.9568911   -0.01620644
    0.2898625    -0.9569092   -0.01745224
     0.290256    -0.9568027   -0.01673432
    0.2903764    -0.9567534   -0.01744837
    0.2904301    -0.9567468    -0.0169069
     0.290491    -0.9567269   -0.01699008
     0.290334    -0.9567747   -0.01698081
    0.2903272    -0.9567884   -0.01631771
    0.2899096    -0.9569016   -0.01709547
    0.2895241    -0.9570183    -0.0170895
    0.2893957    -0.9570663   -0.01656554
    0.2893467    -0.9570616   -0.01765143
     0.289241    -0.9570909   -0.01779305
    0.2893966    -0.9570499   -0.01746888
    0.2891584    -0.9571139   -0.01790319
    0.2889989    -0.9571776   -0.01704468
    0.2890591    -0.9571388   -0.01818057
    0.2887884    -0.9572421   -0.01700652
    0.2886881    -0.9572679    -0.0172418
    0.2891406    -0.9571267   -0.01749386
    0.2890061     -0.957189   -0.01627171
    0.2888143    -0.9572321   -0.01711302
    0.2885719    -0.9573145   -0.01659649
    0.2884785    -0.9573533   -0.01597101
    0.2884429      -0.95735   -0.01679215
    0.2876349    -0.9575849   -0.01724333
    0.2876723    -0.9575752   -0.01716194
    0.2877045    -0.9575735   -0.01670624
    0.2878203    -0.9575465   -0.01625815
    0.2879446    -0.9575009   -0.01673712
    0.2884579    -0.9573267   -0.01782536
    0.2886907    -0.9572563   -0.01783409
    0.2888133    -0.9572327   -0.01710433
    0.2889698    -0.9571866   -0.01703809
    0.2893132    -0.9570892   -0.01667409
     0.289301    -0.9570956   -0.01652508
    0.2894578    -0.9570326   -0.01740621
    0.2895401    -0.9570139    -0.0170546
     0.289034    -0.9571728   -0.01672607
    0.2887985    -0.9572437   -0.01672606
    0.2884712     -0.957342   -0.01676079
    0.2887846    -0.9572383   -0.01727599
    0.2887011    -0.9572603   -0.01744927
    0.2891582    -0.9571186   -0.01764532
    0.2889077    -0.9571899   -0.01789039
    0.2893637    -0.9570744   -0.01664926
    0.2891479    -0.9571474   -0.01620108
    0.2893028    -0.9570904   -0.01679058
    0.2902816    -0.9567989   -0.01651721
    0.2901798      -0.95682    -0.0170748
    0.2905388    -0.9567044   -0.01743865
    0.2905619    -0.9567003   -0.01727634
    0.2908198    -0.9566281   -0.01692565
    0.2901845     -0.956822   -0.01687264
    0.2903754    -0.9567649    -0.0168221
    0.2902361    -0.9568036   -0.01702736
    0.2903896    -0.9567579   -0.01697939
    0.2898836    -0.9569137   -0.01684458
    0.2899113    -0.9569115   -0.01648401
    0.2897818    -0.9569561   -0.01617147
    0.2896394    -0.9569842   -0.01704337
     0.289784    -0.9569498   -0.01650199
    0.2898768    -0.9569048   -0.01746474
    0.2888322    -0.9572327   -0.01677998
    0.2890425    -0.9571644   -0.01705721
    0.2890455     -0.957168   -0.01680159
    0.2889417     -0.957195   -0.01704879
    0.2889875    -0.9571829   -0.01694803
    0.2882202    -0.9574118   -0.01708638
    0.2881898     -0.957417   -0.01730224
     0.288214     -0.957415   -0.01701095
    0.2881916    -0.9574205   -0.01707776
    0.2882406    -0.9574045   -0.01715558
    0.2881254    -0.9574382   -0.01721385
     0.288047    -0.9574721   -0.01660902
    0.2878327    -0.9575394   -0.01645377
    0.2880169    -0.9574835   -0.01648577
    0.2881519    -0.9574403   -0.01663343
    0.2884128    -0.9573614   -0.01665857
    0.2886713    -0.9572708   -0.01736484
    0.2884656    -0.9573393   -0.01700564
    0.2883325     -0.957379   -0.01703817
    0.2885025    -0.9573207   -0.01742388
    0.2884992     -0.957324   -0.01730253
    0.2887383    -0.9572626   -0.01669081
    0.2886782    -0.9572691   -0.01735329
    0.2883041    -0.9573864   -0.01708703
     0.288345    -0.9573789   -0.01682313
    0.2881922    -0.9574223   -0.01697401
     0.288512    -0.9573237   -0.01709272
       0.2892    -0.9571223   -0.01673647
    0.2890195     -0.957173   -0.01696738
    0.2891449     -0.957127   -0.01741793
     0.289036    -0.9571666   -0.01705078
    0.2889551    -0.9571893    -0.0171326
    0.2894156    -0.9570475   -0.01728569
    0.2896426    -0.9569823   -0.01709205
    0.2895555    -0.9570095    -0.0170466
    0.2900532    -0.9568613   -0.01688645
    0.2900329    -0.9568799   -0.01617004
    0.2900614    -0.9568657   -0.01650534
    0.2899049    -0.9569119    -0.0165812
    0.2901724    -0.9568238   -0.01698772
    0.2899095    -0.9569108   -0.01656134
    0.2898985      -0.95691   -0.01680674
    0.2900349    -0.9568703   -0.01670961
     0.290061     -0.956856   -0.01708283
    0.2896435    -0.9569728   -0.01760585
    0.2898993     -0.956904   -0.01713078